units           metal
boundary        p p p
atom_style      atomic
atom_modify     map array sort 10000 2.0
read_data         T${T}.dat
read_data         T440.dat
  orthogonal box = (-6.12347 -6.12347 -6.12347) to (78.5235 78.5235 78.5235)
  4 by 3 by 7 MPI processor grid
  reading atoms ...
  32000 atoms
pair_style      eam/fs
pair_coeff      * * Al90Sm10_MendelevM_2014.eam.fs  Al Sm
mass            1  26.98	#Al
mass            2  150.36	#Sm
neighbor            2.0 bin
neigh_modify    delay 5
timestep 0.002
thermo 1000

fix             1 all npt temp ${T} ${T} 0.02 iso 0 0 0.2
fix             1 all npt temp 440 ${T} 0.02 iso 0 0 0.2
fix             1 all npt temp 440 440 0.02 iso 0 0 0.2
thermo_style custom step temp pe etotal press vol lx ly lz density etotal enthalpy
run 100000
Neighbor list info ...
  1 neighbor list requests
  update every 1 steps, delay 5 steps, check yes
  max neighbors/atom: 2000, page size: 100000
  master list distance cutoff = 10
  ghost atom cutoff = 10
  binsize = 5 -> bins = 17 17 17
Memory usage per processor = 2.88677 Mbytes
Step Temp PotEng TotEng Press Volume Lx Ly Lz Density TotEng Enthalpy 
       0            0   -129100.97   -129100.97   -3333.5514    606504.34    84.646948    84.646948    84.646948    3.4498078   -129100.97   -130362.89 
    1000    441.25455   -129110.14   -127285.02   -10.167268    606288.12    84.636888    84.636888    84.636888     3.451038   -127285.02   -127288.87 
    2000    443.29079   -129119.17   -127285.64    126.27226    606147.85     84.63036     84.63036     84.63036    3.4518367   -127285.64   -127237.87 
    3000    440.22169   -129103.91   -127283.06    288.80604    606132.63    84.629652    84.629652    84.629652    3.4519233   -127283.06    -127173.8 
    4000    444.48416   -129104.95   -127266.48     349.7379    606114.66    84.628815    84.628815    84.628815    3.4520257   -127266.48   -127134.17 
    5000    436.73607   -129109.38   -127302.96    250.61212    606061.43    84.626338    84.626338    84.626338    3.4523289   -127302.96   -127208.16 
    6000     441.2735   -129126.47   -127301.27    81.736844    606151.68    84.630539    84.630539    84.630539    3.4518148   -127301.27   -127270.35 
    7000    438.20321   -129112.72   -127300.22     107.0077    606206.56    84.633093    84.633093    84.633093    3.4515024   -127300.22   -127259.74 
    8000    436.98932   -129110.89   -127303.42   -85.207412    606321.58    84.638445    84.638445    84.638445    3.4508476   -127303.42   -127335.67 
    9000    437.85805   -129103.26   -127292.19   -253.33074    606534.52    84.648352    84.648352    84.648352    3.4496361   -127292.19    -127388.1 
   10000    439.01724   -129110.39   -127294.53   -325.58211    606561.23    84.649594    84.649594    84.649594    3.4494842   -127294.53   -127417.79 
   11000    441.22073   -129108.96   -127283.99   -478.09093    606604.66    84.651615    84.651615    84.651615    3.4492372   -127283.99      -127465 
   12000    435.81797   -129110.84   -127308.21   -244.72292    606507.69    84.647104    84.647104    84.647104    3.4497887   -127308.21   -127400.85 
   13000    442.64319   -129102.07   -127271.21     90.07611    606221.05    84.633767    84.633767    84.633767    3.4514199   -127271.21   -127237.13 
   14000    440.56136   -129109.22   -127286.97    239.55307    606099.79    84.628123    84.628123    84.628123    3.4521104   -127286.97   -127196.35 
   15000    440.15158   -129113.65    -127293.1    303.74564    606085.37    84.627452    84.627452    84.627452    3.4521925    -127293.1    -127178.2 
   16000    439.45213   -129099.92   -127282.26   -467.94934    606648.03    84.653632    84.653632    84.653632    3.4489906   -127282.26   -127459.44 
   17000    439.02609   -129116.43   -127300.53     -41.6754    606265.38     84.63583     84.63583     84.63583    3.4511675   -127300.53    -127316.3 
   18000    441.24809   -129114.95   -127289.86    245.16405    606103.63    84.628302    84.628302    84.628302    3.4520885   -127289.86   -127197.12 
   19000    433.71044   -129105.83   -127311.91    13.837454    606245.69    84.634913    84.634913    84.634913    3.4512796   -127311.91   -127306.68 
   20000     443.6469   -129107.23   -127272.22    208.25918    606138.22    84.629912    84.629912    84.629912    3.4518915   -127272.22   -127193.43 
   21000    442.80949    -129104.2   -127272.66   -178.69352    606490.21    84.646291    84.646291    84.646291    3.4498881   -127272.66    -127340.3 
   22000    438.69987   -129096.53   -127281.98    396.39542    606158.82    84.630871    84.630871    84.630871    3.4517742   -127281.98   -127132.01 
   23000    439.37675    -129117.2   -127299.85    57.611024     606244.4    84.634853    84.634853    84.634853    3.4512869   -127299.85   -127278.05 
   24000    440.34422   -129102.14   -127280.79   -465.63716     606696.4    84.655882    84.655882    84.655882    3.4487157   -127280.79   -127457.11 
   25000    439.42379   -129116.16   -127298.62   -453.14717    606637.38    84.653137    84.653137    84.653137    3.4490512   -127298.62   -127470.19 
   26000    440.05525   -129105.86    -127285.7   -22.085618    606353.15    84.639914    84.639914    84.639914    3.4506679    -127285.7   -127294.06 
   27000    437.79914   -129117.77   -127306.95    82.695481    606191.19    84.632377    84.632377    84.632377    3.4515899   -127306.95   -127275.66 
   28000    443.81235   -129104.36   -127268.66    281.33527    606222.86    84.633851    84.633851    84.633851    3.4514096   -127268.66   -127162.21 
   29000    439.94371   -129106.81   -127287.11   -38.738323    606335.27    84.639082    84.639082    84.639082    3.4507697   -127287.11   -127301.77 
   30000    439.52696   -129112.69   -127294.72   -386.78128    606557.05      84.6494      84.6494      84.6494     3.449508   -127294.72   -127441.15 
   31000    439.75601   -129105.28   -127286.36    95.730294    606289.22    84.636939    84.636939    84.636939    3.4510318   -127286.36   -127250.14 
   32000    438.39642   -129106.66   -127293.37    110.35354    606235.69    84.634448    84.634448    84.634448    3.4513365   -127293.37   -127251.62 
   33000    439.14273   -129110.56   -127294.18   -171.32569    606406.61    84.642401    84.642401    84.642401    3.4503638   -127294.18   -127359.02 
   34000    440.16908   -129103.06   -127282.43   -607.94677    606755.35    84.658624    84.658624    84.658624    3.4483806   -127282.43   -127512.67 
   35000    439.05684   -129118.43   -127302.41   -57.236039    606286.23      84.6368      84.6368      84.6368    3.4510488   -127302.41   -127324.07 
   36000    439.79827   -129113.69    -127294.6    262.61461    606023.63    84.624579    84.624579    84.624579    3.4525442    -127294.6   -127195.26 
   37000    438.90296    -129111.4   -127296.02   -165.35096    606378.56    84.641096    84.641096    84.641096    3.4505233   -127296.02    -127358.6 
   38000    439.89095   -129113.46   -127293.99    -117.5952    606301.44    84.637508    84.637508    84.637508    3.4509623   -127293.99   -127338.49 
   39000    438.47614   -129092.36   -127278.74   -89.991298    606411.46    84.642627    84.642627    84.642627    3.4503361   -127278.74    -127312.8 
   40000    442.67442   -129113.98      -127283    465.47291    605927.86    84.620121    84.620121    84.620121    3.4530899      -127283   -127106.96 
   41000    440.40091   -129098.61   -127277.03   -510.45385    606642.86    84.653392    84.653392    84.653392    3.4490201   -127277.03    -127470.3 
   42000    440.17853   -129100.98   -127280.32   -30.618817    606314.59     84.63812     84.63812     84.63812    3.4508874   -127280.32   -127291.91 
   43000    440.16161   -129085.67   -127265.08    150.22922    606381.56    84.641236    84.641236    84.641236    3.4505063   -127265.08   -127208.22 
   44000    442.54551   -129120.31   -127289.86    98.171485    606194.09    84.632512    84.632512    84.632512    3.4515734   -127289.86   -127252.71 
   45000    439.83428   -129112.73   -127293.49    404.64788    605981.26    84.622606    84.622606    84.622606    3.4527856   -127293.49   -127140.44 
   46000    440.10185   -129090.91   -127270.56    452.78325    606102.72     84.62826     84.62826     84.62826    3.4520937   -127270.56   -127099.27 
   47000    442.22071   -129111.15   -127282.04    83.218505    606178.95    84.631808    84.631808    84.631808    3.4516596   -127282.04   -127250.55 
   48000    439.95077   -129112.59   -127292.87    -314.7781    606571.48    84.650072    84.650072    84.650072    3.4494259   -127292.87   -127412.04 
   49000    438.37707    -129107.8   -127294.59    309.61303    606096.92     84.62799     84.62799     84.62799    3.4521267   -127294.59   -127177.46 
   50000    440.12231   -129113.97   -127293.54   -177.07163    606430.93    84.643533    84.643533    84.643533    3.4502254   -127293.54   -127360.56 
   51000    440.21144   -129100.52   -127279.72    249.14488    606112.73    84.628726    84.628726    84.628726    3.4520367   -127279.72   -127185.47 
   52000     438.8636   -129100.66   -127285.43    359.73903    606055.49    84.626062    84.626062    84.626062    3.4523627   -127285.43   -127149.35 
   53000    440.59355   -129104.77   -127282.39     209.5555    606154.53    84.630671    84.630671    84.630671    3.4517987   -127282.39   -127203.11 
   54000    438.18021   -129092.75   -127280.35   -17.498116    606367.68     84.64059     84.64059     84.64059    3.4505852   -127280.35   -127286.97 
   55000     439.3143    -129116.1   -127299.01   -40.984699     606219.6    84.633699    84.633699    84.633699    3.4514281   -127299.01   -127314.52 
   56000    438.59565   -129106.99   -127292.87   -411.96245    606613.41    84.652022    84.652022    84.652022    3.4491875   -127292.87   -127448.85 
   57000    437.91949   -129110.54   -127299.22   -175.97588    606418.97    84.642976    84.642976    84.642976    3.4502934   -127299.22   -127365.83 
   58000    438.25367   -129094.58   -127281.88    89.349878    606276.56     84.63635     84.63635     84.63635    3.4511039   -127281.88   -127248.07 
   59000    437.36059   -129106.55   -127297.55    -231.2658    606459.22    84.644849    84.644849    84.644849    3.4500644   -127297.55   -127385.09 
   60000    439.12487   -129113.82   -127297.52    44.813135    606210.76    84.633288    84.633288    84.633288    3.4514785   -127297.52   -127280.56 
   61000    440.77574   -129100.75   -127277.62    2.2364448    606398.54    84.642026    84.642026    84.642026    3.4504096   -127277.62   -127276.77 
   62000    438.00069   -129092.71   -127281.05   -364.94484    606702.55    84.656168    84.656168    84.656168    3.4486807   -127281.05   -127419.25 
   63000    440.65979   -129103.16   -127280.51    144.85638    606261.58    84.635653    84.635653    84.635653    3.4511891   -127280.51    -127225.7 
   64000    440.65409   -129097.53    -127274.9   -71.920062    606425.72     84.64329     84.64329     84.64329     3.450255    -127274.9   -127302.12 
   65000    440.28979   -129098.66   -127277.53   -254.61016    606548.34    84.648995    84.648995    84.648995    3.4495575   -127277.53   -127373.92 
   66000     438.9716   -129108.37    -127292.7   -80.022626     606344.9     84.63953     84.63953     84.63953    3.4507149    -127292.7   -127322.98 
   67000     444.6791   -129108.72   -127269.44   -34.710427    606331.05    84.638885    84.638885    84.638885    3.4507937   -127269.44   -127282.58 
   68000    440.10909   -129119.61   -127299.23  -0.49378162    606268.68    84.635983    84.635983    84.635983    3.4511487   -127299.23   -127299.42 
   69000    439.20726   -129096.09   -127279.44     402.6045    606071.36      84.6268      84.6268      84.6268    3.4522723   -127279.44   -127127.14 
   70000    440.36962   -129103.81   -127282.35   -164.82944    606469.48    84.645326    84.645326    84.645326    3.4500061   -127282.35   -127344.74 
   71000    439.87692   -129111.73   -127292.31    7.1050745    606224.96    84.633949    84.633949    84.633949    3.4513976   -127292.31   -127289.63 
   72000    439.91233   -129114.68   -127295.11    110.65926    606154.46    84.630668    84.630668    84.630668     3.451799   -127295.11   -127253.25 
   73000    439.45638   -129104.71   -127287.03   -241.57327    606517.81    84.647575    84.647575    84.647575    3.4497312   -127287.03   -127378.48 
   74000    437.64806   -129090.51   -127280.31   -164.88907    606529.78    84.648132    84.648132    84.648132     3.449663   -127280.31   -127342.74 
   75000    440.27376   -129107.16    -127286.1    -593.8919    606697.56    84.655936    84.655936    84.655936    3.4487091    -127286.1   -127510.99 
   76000    442.63338   -129101.49   -127270.67    232.33327    606228.25    84.634102    84.634102    84.634102    3.4513789   -127270.67   -127182.76 
   77000    439.31441    -129104.7   -127287.61   -61.947727    606393.97    84.641813    84.641813    84.641813    3.4504357   -127287.61   -127311.06 
   78000    439.47638    -129099.9   -127282.14   -300.51745    606603.38    84.651555    84.651555    84.651555    3.4492445   -127282.14   -127395.91 
   79000    442.96609   -129098.24   -127266.04   -190.36461    606558.82    84.649483    84.649483    84.649483    3.4494979   -127266.04   -127338.11 
   80000     441.5641    -129107.8    -127281.4   -254.87252    606511.42    84.647277    84.647277    84.647277    3.4497675    -127281.4   -127377.89 
   81000    439.53585   -129112.06   -127294.05   -282.83416    606476.35    84.645646    84.645646    84.645646     3.449967   -127294.05   -127401.11 
   82000    442.69532   -129115.58   -127284.51    303.48874     606014.4    84.624149    84.624149    84.624149    3.4525968   -127284.51   -127169.72 
   83000    438.92653   -129104.53   -127289.05   -215.03699    606470.77    84.645386    84.645386    84.645386    3.4499987   -127289.05   -127370.45 
   84000    440.63689   -129111.67   -127289.11    34.791634    606232.19    84.634285    84.634285    84.634285    3.4513564   -127289.11   -127275.95 
   85000     441.2198   -129110.11   -127285.14   -391.66265    606543.59    84.648774    84.648774    84.648774    3.4495845   -127285.14   -127433.41 
   86000    438.62745   -129106.72   -127292.47    119.99387    606182.82    84.631988    84.631988    84.631988    3.4516375   -127292.47   -127247.07 
   87000    442.66017   -129114.43    -127283.5    352.93346    606032.79    84.625005    84.625005    84.625005     3.452492    -127283.5      -127150 
   88000    441.16537   -129115.12   -127290.37   -687.59455    606703.12    84.656194    84.656194    84.656194    3.4486775   -127290.37   -127550.75 
   89000    439.84093   -129108.59   -127289.32    60.168625    606300.69    84.637473    84.637473    84.637473    3.4509665   -127289.32   -127266.55 
   90000    438.11304   -129114.17   -127302.05   -81.433131    606286.51    84.636813    84.636813    84.636813    3.4510472   -127302.05   -127332.86 
   91000    444.53405   -129113.26   -127274.58   -85.867796    606397.84    84.641993    84.641993    84.641993    3.4504136   -127274.58   -127307.08 
   92000    439.83006   -129116.37   -127297.14   -756.53507    606806.83    84.661018    84.661018    84.661018     3.448088   -127297.14   -127583.67 
   93000    440.93238   -129101.84   -127278.05   -49.044138    606365.06    84.640468    84.640468    84.640468    3.4506001   -127278.05   -127296.61 
   94000    441.20177   -129087.64   -127262.74    84.492276    606362.53    84.640351    84.640351    84.640351    3.4506145   -127262.74   -127230.76 
   95000     441.9433   -129112.13   -127284.17    647.89383    605811.93    84.614724    84.614724    84.614724    3.4537507   -127284.17   -127039.19 
   96000    440.01655   -129114.03   -127294.04    466.65236    605889.31    84.618326    84.618326    84.618326    3.4533096   -127294.04   -127117.57 
   97000    444.34588   -129083.68   -127245.78   -518.96381    606872.92    84.664091    84.664091    84.664091    3.4477126   -127245.78   -127442.36 
   98000     438.5575   -129112.25   -127298.29    375.03096    606068.88    84.626685    84.626685    84.626685    3.4522865   -127298.29   -127156.43 
   99000    438.16091   -129107.22    -127294.9    221.83513    606112.72    84.628725    84.628725    84.628725    3.4520367    -127294.9   -127210.98 
  100000    438.18137   -129103.79   -127291.38   -243.69484     606453.9    84.644601    84.644601    84.644601    3.4500947   -127291.38   -127383.63 
Loop time of 281.339 on 84 procs for 100000 steps with 32000 atoms

Performance: 61.421 ns/day, 0.391 hours/ns, 355.444 timesteps/s
99.8% CPU use with 84 MPI tasks x 1 OpenMP threads

MPI task timing breakdown:
Section |  min time  |  avg time  |  max time  |%varavg| %total
---------------------------------------------------------------
Pair    | 218.92     | 227.71     | 237.06     |  25.3 | 80.94
Neigh   | 3.081      | 3.2278     | 3.4535     |   4.8 |  1.15
Comm    | 19.577     | 27.545     | 38.879     |  78.8 |  9.79
Output  | 0.014366   | 0.015268   | 0.030179   |   1.4 |  0.01
Modify  | 15.409     | 19.651     | 23.442     |  51.7 |  6.98
Other   |            | 3.189      |            |       |  1.13

Nlocal:    380.952 ave 393 max 370 min
Histogram: 4 3 9 18 11 13 16 6 3 1
Nghost:    2980.68 ave 3021 max 2956 min
Histogram: 6 9 12 12 24 14 5 1 0 1
Neighs:    41951.2 ave 44196 max 39749 min
Histogram: 4 7 8 16 6 15 11 5 8 4

Total # of neighbors = 3523900
Ave neighs/atom = 110.122
Neighbor list builds = 2790
Dangerous builds = 0
unfix 1

reset_timestep 0

fix             1 all nvt temp ${T} ${T} 0.1
fix             1 all nvt temp 440 ${T} 0.1
fix             1 all nvt temp 440 440 0.1

shell "rm -f out*.colvars.*"
fix		2 all colvars configfile

thermo 10000

dump            1 all custom 100000 dump.${T} id type x y z
dump            1 all custom 100000 dump.440 id type x y z
dump_modify 1 sort id

run 10000000
colvars: Creating proxy instance
colvars: ----------------------------------------------------------------------
colvars: Initializing the collective variables module, version 2016-10-21.
colvars: Please cite Fiorin et al, Mol Phys 2013:
colvars:  http://dx.doi.org/10.1080/00268976.2013.813594
colvars: in any publication based on this calculation.
colvars: SMP parallelism is available.
colvars: Using LAMMPS interface, version 2016-10-05.
colvars: ----------------------------------------------------------------------
colvars: Reading new configuration from file "configfile":
colvars: # indexFile = "" [default]
colvars: # smp = on [default]
colvars: # analysis = off [default]
colvars: # colvarsTrajFrequency = 100
colvars: # colvarsRestartFrequency = 100000
colvars: # colvarsTrajAppend = off [default]
colvars: # scriptedColvarForces = off [default]
colvars: # scriptingAfterBiases = on [default]
colvars: ----------------------------------------------------------------------
colvars:   Initializing a new collective variable.
colvars:   # name = "dist"
colvars:   Initializing a new "rmsd" component.
colvars:     # componentCoeff = 1 [default]
colvars:     # componentExp = 1 [default]
colvars:     # period = 0 [default]
colvars:     # wrapAround = 0 [default]
colvars:     # scalable = on [default]
colvars:       Initializing atom group "atoms".
colvars:       # indexGroup = "" [default]
colvars:       # psfSegID =  [default]
colvars:       # atomsFile = "" [default]
colvars:       # dummyAtom = ( 0 , 0 , 0 ) [default]
colvars:       # enableForces = on [default]
colvars:       # centerReference = off [default]
colvars:       # rotateReference = off [default]
colvars:       # enableFitGradients = on [default]
colvars:       Atom group "atoms" defined, 10 atoms initialized: total mass = 10, total charge = 0.
colvars:     # refPositions = { ( 4.57751 , 3.14681 , 28.1723 ), ( 6.66922 , 1.58913 , 29.2213 ), ( 5.54105 , 1.09466 , 26.3696 ), ( 9.04416 , 0.386589 , 26.9137 ), ( 7.15222 , -0.753047 , 24.7596 ), ( 4.34837 , -1.38917 , 25.1609 ), ( 6.11893 , -1.66561 , 27.8827 ), ( 4.04694 , 0.565084 , 28.9847 ), ( 3.78428 , -2.01688 , 30.4377 ), ( 3.01459 , -2.09032 , 27.5718 ) }
colvars:     Using reference positions from configuration file to calculate the variable.
colvars:     # refPositionsFile = "" [default]
colvars:     Enabling "centerReference" and "rotateReference", to minimize RMSD before calculating it as a variable: if this is not the desired behavior, disable them explicitly within the "atoms" block.
colvars:     This is a standard minimum RMSD, derivatives of the optimal rotation will not be computed as they cancel out in the gradients.
colvars:   All components initialized.
colvars:   # width = 0.01
colvars:   # lowerBoundary = 0
colvars:   # lowerWallConstant = 0 [default]
colvars:   # upperBoundary = 10
colvars:   # upperWallConstant = 0 [default]
colvars:   # hardLowerBoundary = off [default]
colvars:   # hardUpperBoundary = off [default]
colvars:   # expandBoundaries = on
colvars:   # timeStepFactor = 1 [default]
colvars:   # extendedLagrangian = off [default]
colvars:   # outputValue = on [default]
colvars:   # outputVelocity = off [default]
colvars:   # outputTotalForce = off [default]
colvars:   # outputAppliedForce = off [default]
colvars:   # subtractAppliedForce = off [default]
colvars: ----------------------------------------------------------------------
colvars: Collective variables initialized, 1 in total.
colvars: ----------------------------------------------------------------------
colvars:   Initializing a new "metadynamics" instance.
colvars:   # name = "meta"
colvars:   # colvars = { dist }
colvars:   # outputEnergy = on
colvars:   # hillWeight = 0.01
colvars:   # newHillFrequency = 1000
colvars:   # hillWidth = 20
colvars:   Half-widths of the Gaussian hills (sigma's):
colvars:   dist: 0.1
colvars:   # multipleReplicas = off [default]
colvars:   # useGrids = on [default]
colvars:   # gridsUpdateFrequency = 1000 [default]
colvars:   # rebinGrids = off [default]
colvars:   Metadynamics bias "meta": Will expand grids when the colvar "dist" approaches its boundaries.
colvars:   # keepHills = off [default]
colvars:   # writeFreeEnergyFile = on
colvars:   Option "saveFreeEnergyFile" is deprecated, please use "keepFreeEnergyFiles" instead.
colvars:   # keepFreeEnergyFiles = on [default]
colvars:   # writeHillsTrajectory = off [default]
colvars:   # wellTempered = on
colvars:   # biasTemperature = 1500
colvars:   Well-tempered metadynamics is used.
colvars:   The bias temperature is 1500.
colvars:   # ebMeta = off [default]
colvars: ----------------------------------------------------------------------
colvars: Collective variables biases initialized, 1 in total.
colvars: ----------------------------------------------------------------------
colvars: Collective variables module (re)initialized.
colvars: ----------------------------------------------------------------------
colvars: Re-initialized atom group dist:0/0. 10 atoms: total mass = 10.
colvars: The restart output state file will be "rest.colvars.state".
colvars: The final output state file will be "out.colvars.state".
colvars: Writing to colvar trajectory file "out.colvars.traj".
colvars: Re-initialized atom group dist:0/0. 10 atoms: total mass = 516.56.
colvars: Metadynamics bias "meta": new lower boundary for colvar "dist", at -0.45.
Memory usage per processor = 4.18905 Mbytes
Step Temp PotEng TotEng Press Volume Lx Ly Lz Density TotEng Enthalpy 
       0    438.18137   -129103.79   -127291.38   -243.69484     606453.9    84.644601    84.644601    84.644601    3.4500947   -127291.38   -127383.63 
colvars: Metadynamics bias "meta": new lower boundary for colvar "dist", at -0.46.
colvars: Metadynamics bias "meta": new lower boundary for colvar "dist", at -0.47.
colvars: Metadynamics bias "meta": new lower boundary for colvar "dist", at -0.48.
colvars: Metadynamics bias "meta": new lower boundary for colvar "dist", at -0.49.
colvars: Metadynamics bias "meta": new lower boundary for colvar "dist", at -0.5.
colvars: Metadynamics bias "meta": new lower boundary for colvar "dist", at -0.51.
colvars: Metadynamics bias "meta": new lower boundary for colvar "dist", at -0.52.
   10000     438.7947   -129087.86   -127272.92   -90.545357     606453.9    84.644601    84.644601    84.644601    3.4500947   -127272.92    -127307.2 
   20000    439.48987    -129110.2   -127292.38   -323.97205     606453.9    84.644601    84.644601    84.644601    3.4500947   -127292.38   -127415.01 
   30000    437.59038   -129098.59   -127288.64   -189.08313     606453.9    84.644601    84.644601    84.644601    3.4500947   -127288.64   -127360.21 
   40000    440.98452   -129116.03   -127292.04   -237.38978     606453.9    84.644601    84.644601    84.644601    3.4500947   -127292.04   -127381.89 
   50000    442.74251   -129102.65   -127271.38    -181.7478     606453.9    84.644601    84.644601    84.644601    3.4500947   -127271.38   -127340.18 
   60000    440.32833   -129107.91   -127286.62   -100.54854     606453.9    84.644601    84.644601    84.644601    3.4500947   -127286.62   -127324.68 
   70000    442.62471   -129097.27   -127266.48   -178.39744     606453.9    84.644601    84.644601    84.644601    3.4500947   -127266.48   -127334.01 
   80000     441.2578   -129097.12   -127271.99   -13.861621     606453.9    84.644601    84.644601    84.644601    3.4500947   -127271.99   -127277.24 
   90000    437.57784   -129100.57   -127290.67   -26.522217     606453.9    84.644601    84.644601    84.644601    3.4500947   -127290.67    -127300.7 
colvars: Synchronizing (emptying the buffer of) trajectory file "out.colvars.traj".
colvars: Writing the state file "rest.colvars.state".
  100000    438.70441   -129100.35   -127285.78    -193.5118     606453.9    84.644601    84.644601    84.644601    3.4500947   -127285.78   -127359.03 
  110000    441.73573   -129110.68   -127283.58   -190.77376     606453.9    84.644601    84.644601    84.644601    3.4500947   -127283.58   -127355.79 
  120000    439.11813   -129112.19   -127295.92   -178.70378     606453.9    84.644601    84.644601    84.644601    3.4500947   -127295.92   -127363.56 
  130000    441.53852   -129114.16   -127287.87   -320.38982     606453.9    84.644601    84.644601    84.644601    3.4500947   -127287.87   -127409.15 
  140000    443.66259   -129113.54   -127278.46   -316.90081     606453.9    84.644601    84.644601    84.644601    3.4500947   -127278.46   -127398.42 
  150000    439.31713   -129105.38   -127288.27   -148.81708     606453.9    84.644601    84.644601    84.644601    3.4500947   -127288.27    -127344.6 
  160000    439.03262   -129108.82   -127292.89   -214.93217     606453.9    84.644601    84.644601    84.644601    3.4500947   -127292.89   -127374.25 
  170000    446.06309   -129100.44   -127255.43     -136.004     606453.9    84.644601    84.644601    84.644601    3.4500947   -127255.43   -127306.91 
  180000    444.24045   -129107.98   -127270.51   -72.602385     606453.9    84.644601    84.644601    84.644601    3.4500947   -127270.51   -127297.99 
  190000    438.39744   -129109.66   -127296.36   -298.31477     606453.9    84.644601    84.644601    84.644601    3.4500947   -127296.36   -127409.28 
colvars: Synchronizing (emptying the buffer of) trajectory file "out.colvars.traj".
colvars: Writing the state file "rest.colvars.state".
  200000    436.90759   -129079.36   -127272.22    52.436427     606453.9    84.644601    84.644601    84.644601    3.4500947   -127272.22   -127252.38 
colvars: Metadynamics bias "meta": new lower boundary for colvar "dist", at -0.53.
  210000    437.95757   -129101.67    -127290.2   -152.31051     606453.9    84.644601    84.644601    84.644601    3.4500947    -127290.2   -127347.85 
  220000    442.91672    -129101.4   -127269.41   -49.682204     606453.9    84.644601    84.644601    84.644601    3.4500947   -127269.41   -127288.21 
  230000    440.53745   -129112.85    -127290.7   -236.05307     606453.9    84.644601    84.644601    84.644601    3.4500947    -127290.7   -127380.05 
  240000     439.5133   -129114.17   -127296.26   -97.781734     606453.9    84.644601    84.644601    84.644601    3.4500947   -127296.26   -127333.27 
  250000    437.85082   -129099.72   -127288.68   -178.69128     606453.9    84.644601    84.644601    84.644601    3.4500947   -127288.68   -127356.32 
  260000    441.87435    -129116.8   -127289.12   -302.54122     606453.9    84.644601    84.644601    84.644601    3.4500947   -127289.12   -127403.64 
  270000    436.97578   -129114.56   -127307.14   -353.90604     606453.9    84.644601    84.644601    84.644601    3.4500947   -127307.14    -127441.1 
  280000    441.34062   -129113.35   -127287.88   -253.83463     606453.9    84.644601    84.644601    84.644601    3.4500947   -127287.88   -127383.96 
colvars: Metadynamics bias "meta": new lower boundary for colvar "dist", at -0.54.
  290000    439.07298   -129107.61   -127291.52   -95.293582     606453.9    84.644601    84.644601    84.644601    3.4500947   -127291.52   -127327.59 
colvars: Synchronizing (emptying the buffer of) trajectory file "out.colvars.traj".
colvars: Writing the state file "rest.colvars.state".
  300000    441.99363   -129101.83   -127273.66   -168.99574     606453.9    84.644601    84.644601    84.644601    3.4500947   -127273.66   -127337.63 
  310000    442.03793    -129104.6   -127276.24   -146.97104     606453.9    84.644601    84.644601    84.644601    3.4500947   -127276.24   -127331.87 
  320000    438.17062   -129102.59   -127290.23   -171.42524     606453.9    84.644601    84.644601    84.644601    3.4500947   -127290.23   -127355.11 
  330000    438.07226   -129109.02   -127297.07    -314.5851     606453.9    84.644601    84.644601    84.644601    3.4500947   -127297.07   -127416.14 
  340000    439.81247    -129116.8   -127297.64   -279.46926     606453.9    84.644601    84.644601    84.644601    3.4500947   -127297.64   -127403.43 
  350000     437.2309   -129100.43   -127291.95     -160.812     606453.9    84.644601    84.644601    84.644601    3.4500947   -127291.95   -127352.82 
  360000    437.15198   -129106.88   -127298.73   -143.23168     606453.9    84.644601    84.644601    84.644601    3.4500947   -127298.73   -127352.95 
  370000    439.62738   -129113.17   -127294.78   -189.09081     606453.9    84.644601    84.644601    84.644601    3.4500947   -127294.78   -127366.35 
  380000    438.12695   -129098.63   -127286.45   -140.16903     606453.9    84.644601    84.644601    84.644601    3.4500947   -127286.45   -127339.51 
  390000    437.91068   -129121.85   -127310.56   -440.01337     606453.9    84.644601    84.644601    84.644601    3.4500947   -127310.56   -127477.12 
colvars: Synchronizing (emptying the buffer of) trajectory file "out.colvars.traj".
colvars: Writing the state file "rest.colvars.state".
  400000    439.52696   -129109.46   -127291.49   -277.46962     606453.9    84.644601    84.644601    84.644601    3.4500947   -127291.49   -127396.52 
  410000    440.65653   -129111.57   -127288.93   -132.16697     606453.9    84.644601    84.644601    84.644601    3.4500947   -127288.93   -127338.96 
  420000    436.81815   -129095.37    -127288.6    -81.61546     606453.9    84.644601    84.644601    84.644601    3.4500947    -127288.6    -127319.5 
  430000    439.77587   -129111.64   -127292.64   -327.71378     606453.9    84.644601    84.644601    84.644601    3.4500947   -127292.64   -127416.68 
  440000    440.31321   -129102.34   -127281.12   -142.76771     606453.9    84.644601    84.644601    84.644601    3.4500947   -127281.12   -127335.16 
  450000     441.8639   -129123.94    -127296.3   -290.82205     606453.9    84.644601    84.644601    84.644601    3.4500947    -127296.3   -127406.38 
  460000     437.4277   -129105.86   -127296.57   -161.64459     606453.9    84.644601    84.644601    84.644601    3.4500947   -127296.57   -127357.76 
  470000    440.05086   -129116.08   -127295.95   -275.68705     606453.9    84.644601    84.644601    84.644601    3.4500947   -127295.95    -127400.3 
  480000    438.70465   -129107.05   -127292.48   -210.40462     606453.9    84.644601    84.644601    84.644601    3.4500947   -127292.48   -127372.13 
  490000    441.94601   -129117.02   -127289.04   -153.64289     606453.9    84.644601    84.644601    84.644601    3.4500947   -127289.04    -127347.2 
colvars: Synchronizing (emptying the buffer of) trajectory file "out.colvars.traj".
colvars: Writing the state file "rest.colvars.state".
  500000    441.50601    -129103.4   -127277.24   -94.573534     606453.9    84.644601    84.644601    84.644601    3.4500947   -127277.24   -127313.04 
  510000    444.14283   -129098.64   -127261.58   -175.47411     606453.9    84.644601    84.644601    84.644601    3.4500947   -127261.58      -127328 
  520000    439.03593   -129097.79   -127281.86    4.4665084     606453.9    84.644601    84.644601    84.644601    3.4500947   -127281.86   -127280.16 
  530000    443.39901   -129117.74   -127283.75   -285.33578     606453.9    84.644601    84.644601    84.644601    3.4500947   -127283.75   -127391.76 
  540000    441.36348   -129112.72   -127287.16   -229.50121     606453.9    84.644601    84.644601    84.644601    3.4500947   -127287.16   -127374.03 
  550000    443.60638   -129104.53   -127269.69   -149.19995     606453.9    84.644601    84.644601    84.644601    3.4500947   -127269.69   -127326.16 
  560000    439.51206      -129102   -127284.09   -98.768862     606453.9    84.644601    84.644601    84.644601    3.4500947   -127284.09   -127321.47 
  570000    440.62143   -129103.13   -127280.63   -245.11414     606453.9    84.644601    84.644601    84.644601    3.4500947   -127280.63   -127373.42 
  580000    440.01951   -129107.36   -127287.35    -290.2569     606453.9    84.644601    84.644601    84.644601    3.4500947   -127287.35   -127397.22 
  590000    439.78662   -129104.27   -127285.22   -139.82334     606453.9    84.644601    84.644601    84.644601    3.4500947   -127285.22   -127338.15 
colvars: Synchronizing (emptying the buffer of) trajectory file "out.colvars.traj".
colvars: Writing the state file "rest.colvars.state".
  600000    439.42953   -129103.98   -127286.41   -186.53188     606453.9    84.644601    84.644601    84.644601    3.4500947   -127286.41   -127357.02 
  610000    439.41304   -129112.55   -127295.05   -244.37004     606453.9    84.644601    84.644601    84.644601    3.4500947   -127295.05   -127387.55 
  620000    437.19716      -129108   -127299.67   -97.788587     606453.9    84.644601    84.644601    84.644601    3.4500947   -127299.67   -127336.69 
  630000    441.28836   -129103.17   -127277.91   -148.87982     606453.9    84.644601    84.644601    84.644601    3.4500947   -127277.91   -127334.27 
  640000    440.25115   -129103.78   -127282.82   -226.80499     606453.9    84.644601    84.644601    84.644601    3.4500947   -127282.82   -127368.67 
  650000    439.10779   -129118.85   -127302.62   -256.94628     606453.9    84.644601    84.644601    84.644601    3.4500947   -127302.62   -127399.88 
  660000    440.97659   -129103.14   -127279.18   -266.25806     606453.9    84.644601    84.644601    84.644601    3.4500947   -127279.18   -127379.96 
  670000    439.54041   -129104.68   -127286.66   -310.43214     606453.9    84.644601    84.644601    84.644601    3.4500947   -127286.66   -127404.16 
  680000    439.50841   -129116.65   -127298.76   -349.89947     606453.9    84.644601    84.644601    84.644601    3.4500947   -127298.76    -127431.2 
  690000    438.64656   -129109.93   -127295.61    -236.6928     606453.9    84.644601    84.644601    84.644601    3.4500947   -127295.61    -127385.2 
colvars: Synchronizing (emptying the buffer of) trajectory file "out.colvars.traj".
colvars: Writing the state file "rest.colvars.state".
  700000    439.39638   -129107.92   -127290.49   -189.89305     606453.9    84.644601    84.644601    84.644601    3.4500947   -127290.49   -127362.37 
  710000    438.93997    -129112.8   -127297.26   -285.20016     606453.9    84.644601    84.644601    84.644601    3.4500947   -127297.26   -127405.22 
  720000    437.56044   -129096.08   -127286.24     -339.572     606453.9    84.644601    84.644601    84.644601    3.4500947   -127286.24   -127414.77 
  730000    438.95317   -129091.74   -127276.14   -59.436357     606453.9    84.644601    84.644601    84.644601    3.4500947   -127276.14   -127298.64 
  740000     439.4665    -129113.8   -127296.08   -205.56507     606453.9    84.644601    84.644601    84.644601    3.4500947   -127296.08   -127373.89 
  750000    441.28502   -129117.81   -127292.57   -226.76331     606453.9    84.644601    84.644601    84.644601    3.4500947   -127292.57    -127378.4 
  760000    441.31538    -129097.6   -127272.24    -183.1254     606453.9    84.644601    84.644601    84.644601    3.4500947   -127272.24   -127341.55 
  770000     439.1102   -129109.52   -127293.28   -225.08771     606453.9    84.644601    84.644601    84.644601    3.4500947   -127293.28   -127378.48 
  780000    440.33504   -129096.38   -127275.07   -197.74123     606453.9    84.644601    84.644601    84.644601    3.4500947   -127275.07   -127349.92 
  790000    439.86284    -129102.6   -127283.24   -163.20862     606453.9    84.644601    84.644601    84.644601    3.4500947   -127283.24   -127345.02 
colvars: Synchronizing (emptying the buffer of) trajectory file "out.colvars.traj".
colvars: Writing the state file "rest.colvars.state".
  800000    438.30747   -129104.35   -127291.42   -304.27471     606453.9    84.644601    84.644601    84.644601    3.4500947   -127291.42    -127406.6 
  810000    440.51481   -129102.11   -127280.05   -146.72829     606453.9    84.644601    84.644601    84.644601    3.4500947   -127280.05   -127335.59 
  820000    441.33104   -129097.66   -127272.22   -320.75499     606453.9    84.644601    84.644601    84.644601    3.4500947   -127272.22   -127393.64 
  830000    443.78421    -129102.8   -127267.22   -224.43708     606453.9    84.644601    84.644601    84.644601    3.4500947   -127267.22   -127352.17 
  840000    439.54374   -129110.57   -127292.54    -261.6985     606453.9    84.644601    84.644601    84.644601    3.4500947   -127292.54   -127391.59 
  850000    437.43368   -129113.78   -127304.46   -348.10918     606453.9    84.644601    84.644601    84.644601    3.4500947   -127304.46   -127436.23 
  860000    440.45202   -129112.04   -127290.25   -241.37751     606453.9    84.644601    84.644601    84.644601    3.4500947   -127290.25   -127381.61 
  870000    436.19904   -129100.44   -127296.23   -197.04325     606453.9    84.644601    84.644601    84.644601    3.4500947   -127296.23   -127370.82 
  880000    441.19178   -129097.58   -127272.72   -102.16579     606453.9    84.644601    84.644601    84.644601    3.4500947   -127272.72    -127311.4 
  890000    437.90585   -129097.87   -127286.61   -141.69946     606453.9    84.644601    84.644601    84.644601    3.4500947   -127286.61   -127340.24 
colvars: Synchronizing (emptying the buffer of) trajectory file "out.colvars.traj".
colvars: Writing the state file "rest.colvars.state".
  900000    438.95963   -129109.73   -127294.11   -289.31256     606453.9    84.644601    84.644601    84.644601    3.4500947   -127294.11   -127403.62 
  910000    440.77679   -129097.68   -127274.54   -162.50301     606453.9    84.644601    84.644601    84.644601    3.4500947   -127274.54   -127336.05 
  920000    441.06787   -129116.81   -127292.46   -275.13666     606453.9    84.644601    84.644601    84.644601    3.4500947   -127292.46   -127396.61 
  930000    445.42551   -129116.39   -127274.02   -218.95679     606453.9    84.644601    84.644601    84.644601    3.4500947   -127274.02    -127356.9 
  940000    439.68594   -129103.15   -127284.53   -242.20348     606453.9    84.644601    84.644601    84.644601    3.4500947   -127284.53    -127376.2 
  950000     439.2476   -129112.57   -127295.75   -274.29154     606453.9    84.644601    84.644601    84.644601    3.4500947   -127295.75   -127399.58 
  960000    440.39401   -129111.55      -127290   -280.96057     606453.9    84.644601    84.644601    84.644601    3.4500947      -127290   -127396.35 
  970000    439.78059   -129112.17   -127293.15   -279.48161     606453.9    84.644601    84.644601    84.644601    3.4500947   -127293.15   -127398.94 
  980000     439.4069   -129112.98   -127295.51   -182.12747     606453.9    84.644601    84.644601    84.644601    3.4500947   -127295.51   -127364.45 
  990000    436.92054   -129124.95   -127317.77   -354.38822     606453.9    84.644601    84.644601    84.644601    3.4500947   -127317.77   -127451.91 
colvars: Synchronizing (emptying the buffer of) trajectory file "out.colvars.traj".
colvars: Writing the state file "rest.colvars.state".
 1000000    437.80762    -129110.5   -127299.64   -201.63682     606453.9    84.644601    84.644601    84.644601    3.4500947   -127299.64   -127375.97 
 1010000    436.04647   -129111.42   -127307.85   -186.47837     606453.9    84.644601    84.644601    84.644601    3.4500947   -127307.85   -127378.43 
 1020000    437.97363   -129119.72   -127308.17   -263.26163     606453.9    84.644601    84.644601    84.644601    3.4500947   -127308.17   -127407.82 
 1030000     444.3245    -129101.6   -127263.79   -175.45905     606453.9    84.644601    84.644601    84.644601    3.4500947   -127263.79    -127330.2 
 1040000    442.31024    -129124.9   -127295.42   -242.40191     606453.9    84.644601    84.644601    84.644601    3.4500947   -127295.42   -127387.18 
 1050000    440.75505   -129126.49   -127303.44   -283.07169     606453.9    84.644601    84.644601    84.644601    3.4500947   -127303.44   -127410.59 
 1060000    440.77093   -129102.02   -127278.91   -218.15799     606453.9    84.644601    84.644601    84.644601    3.4500947   -127278.91   -127361.49 
 1070000    440.23878    -129106.6   -127285.69   -183.07498     606453.9    84.644601    84.644601    84.644601    3.4500947   -127285.69   -127354.98 
 1080000    439.61871   -129110.29   -127291.94   -328.92398     606453.9    84.644601    84.644601    84.644601    3.4500947   -127291.94   -127416.45 
 1090000    441.17022   -129116.91   -127292.15    -171.5192     606453.9    84.644601    84.644601    84.644601    3.4500947   -127292.15   -127357.07 
colvars: Metadynamics bias "meta": new lower boundary for colvar "dist", at -0.55.
colvars: Synchronizing (emptying the buffer of) trajectory file "out.colvars.traj".
colvars: Writing the state file "rest.colvars.state".
 1100000     439.5919   -129107.59   -127289.35   -143.52857     606453.9    84.644601    84.644601    84.644601    3.4500947   -127289.35   -127343.68 
 1110000    437.76097   -129106.83   -127296.16   -43.894281     606453.9    84.644601    84.644601    84.644601    3.4500947   -127296.16   -127312.78 
 1120000    441.69724    -129095.9   -127268.95    3.5295659     606453.9    84.644601    84.644601    84.644601    3.4500947   -127268.95   -127267.61 
 1130000    442.48305   -129108.98   -127278.78   -110.05452     606453.9    84.644601    84.644601    84.644601    3.4500947   -127278.78   -127320.44 
 1140000    443.50767   -129116.67   -127282.24   -250.93525     606453.9    84.644601    84.644601    84.644601    3.4500947   -127282.24   -127377.22 
 1150000    441.30958   -129107.26   -127281.92   -323.37806     606453.9    84.644601    84.644601    84.644601    3.4500947   -127281.92   -127404.32 
 1160000    440.70275   -129111.37   -127288.54   -270.09962     606453.9    84.644601    84.644601    84.644601    3.4500947   -127288.54   -127390.77 
 1170000    440.70669   -129116.29   -127293.44   -265.34129     606453.9    84.644601    84.644601    84.644601    3.4500947   -127293.44   -127393.87 
 1180000    438.65749   -129111.24   -127296.86   -293.21463     606453.9    84.644601    84.644601    84.644601    3.4500947   -127296.86   -127407.85 
 1190000    437.03788   -129118.46   -127310.79   -421.36176     606453.9    84.644601    84.644601    84.644601    3.4500947   -127310.79   -127470.28 
colvars: Synchronizing (emptying the buffer of) trajectory file "out.colvars.traj".
colvars: Writing the state file "rest.colvars.state".
 1200000    440.47651   -129097.85   -127275.95   -85.885522     606453.9    84.644601    84.644601    84.644601    3.4500947   -127275.95   -127308.46 
 1210000    438.01536   -129125.01   -127313.29    -344.5651     606453.9    84.644601    84.644601    84.644601    3.4500947   -127313.29   -127443.72 
 1220000    437.94037    -129116.3    -127304.9   -299.46452     606453.9    84.644601    84.644601    84.644601    3.4500947    -127304.9   -127418.25 
 1230000    442.75391    -129131.8   -127300.49   -391.53979     606453.9    84.644601    84.644601    84.644601    3.4500947   -127300.49   -127448.69 
 1240000    439.40133   -129102.41   -127284.96   -63.226666     606453.9    84.644601    84.644601    84.644601    3.4500947   -127284.96   -127308.89 
 1250000     437.7895   -129117.36   -127306.58    -152.8958     606453.9    84.644601    84.644601    84.644601    3.4500947   -127306.58   -127364.45 
 1260000    439.76171   -129095.46   -127276.52   -99.139439     606453.9    84.644601    84.644601    84.644601    3.4500947   -127276.52   -127314.04 
 1270000    442.60696   -129105.09   -127274.38   -102.91626     606453.9    84.644601    84.644601    84.644601    3.4500947   -127274.38   -127313.33 
 1280000    441.43238   -129115.12   -127289.27   -254.68862     606453.9    84.644601    84.644601    84.644601    3.4500947   -127289.27   -127385.67 
 1290000    437.06342   -129107.77   -127299.99   -198.06351     606453.9    84.644601    84.644601    84.644601    3.4500947   -127299.99   -127374.96 
colvars: Synchronizing (emptying the buffer of) trajectory file "out.colvars.traj".
colvars: Writing the state file "rest.colvars.state".
 1300000    435.94427   -129110.35    -127307.2   -244.36438     606453.9    84.644601    84.644601    84.644601    3.4500947    -127307.2    -127399.7 
 1310000    439.36243   -129090.99    -127273.7    12.151841     606453.9    84.644601    84.644601    84.644601    3.4500947    -127273.7    -127269.1 
 1320000    440.88362   -129101.24   -127277.66   -138.84327     606453.9    84.644601    84.644601    84.644601    3.4500947   -127277.66   -127330.21 
 1330000    438.63131   -129114.77   -127300.51   -244.98733     606453.9    84.644601    84.644601    84.644601    3.4500947   -127300.51   -127393.24 
 1340000    439.35166   -129102.48   -127285.24   -169.45294     606453.9    84.644601    84.644601    84.644601    3.4500947   -127285.24   -127349.38 
 1350000    442.39229   -129113.62    -127283.8   -353.98982     606453.9    84.644601    84.644601    84.644601    3.4500947    -127283.8   -127417.79 
 1360000     443.3821   -129115.43   -127281.51   -155.65909     606453.9    84.644601    84.644601    84.644601    3.4500947   -127281.51   -127340.43 
 1370000    441.48198   -129111.78   -127285.72   -210.74947     606453.9    84.644601    84.644601    84.644601    3.4500947   -127285.72   -127365.49 
 1380000    439.54467   -129122.29   -127304.24   -307.23908     606453.9    84.644601    84.644601    84.644601    3.4500947   -127304.24   -127420.54 
 1390000    435.72639   -129123.28   -127321.03   -293.67884     606453.9    84.644601    84.644601    84.644601    3.4500947   -127321.03   -127432.19 
colvars: Synchronizing (emptying the buffer of) trajectory file "out.colvars.traj".
colvars: Writing the state file "rest.colvars.state".
 1400000     439.3658   -129132.33   -127315.03   -393.31836     606453.9    84.644601    84.644601    84.644601    3.4500947   -127315.03   -127463.91 
 1410000    438.74885   -129107.33   -127292.58   -207.03388     606453.9    84.644601    84.644601    84.644601    3.4500947   -127292.58   -127370.95 
 1420000    442.77644   -129106.62   -127275.21   -275.07603     606453.9    84.644601    84.644601    84.644601    3.4500947   -127275.21   -127379.33 
 1430000    436.12346   -129098.49   -127294.59   -118.21976     606453.9    84.644601    84.644601    84.644601    3.4500947   -127294.59   -127339.34 
 1440000    442.25994   -129098.14   -127268.87    -20.82582     606453.9    84.644601    84.644601    84.644601    3.4500947   -127268.87   -127276.75 
 1450000    439.28407   -129101.24   -127284.28   -188.45754     606453.9    84.644601    84.644601    84.644601    3.4500947   -127284.28   -127355.61 
 1460000    440.40642   -129111.88   -127290.28   -149.55378     606453.9    84.644601    84.644601    84.644601    3.4500947   -127290.28   -127346.89 
 1470000    440.43723   -129096.21   -127274.47   -90.933193     606453.9    84.644601    84.644601    84.644601    3.4500947   -127274.47   -127308.89 
 1480000    445.58725   -129098.18   -127255.14   -143.99131     606453.9    84.644601    84.644601    84.644601    3.4500947   -127255.14   -127309.65 
 1490000    439.61256   -129115.35   -127297.03   -305.17466     606453.9    84.644601    84.644601    84.644601    3.4500947   -127297.03   -127412.54 
colvars: Synchronizing (emptying the buffer of) trajectory file "out.colvars.traj".
colvars: Writing the state file "rest.colvars.state".
 1500000    438.99327   -129117.04   -127301.28   -247.92532     606453.9    84.644601    84.644601    84.644601    3.4500947   -127301.28   -127395.12 
 1510000    438.51629   -129105.41   -127291.62   -151.44391     606453.9    84.644601    84.644601    84.644601    3.4500947   -127291.62   -127348.94 
 1520000    440.13296   -129113.38    -127292.9   -271.38318     606453.9    84.644601    84.644601    84.644601    3.4500947    -127292.9   -127395.63 
 1530000     437.7286   -129105.29   -127294.76   -70.383056     606453.9    84.644601    84.644601    84.644601    3.4500947   -127294.76    -127321.4 
 1540000     440.7583    -129110.8   -127287.74   -197.19928     606453.9    84.644601    84.644601    84.644601    3.4500947   -127287.74   -127362.38 
 1550000     439.9316   -129100.43   -127280.79   -148.59422     606453.9    84.644601    84.644601    84.644601    3.4500947   -127280.79   -127337.03 
 1560000    438.13286   -129116.85   -127304.65   -259.65374     606453.9    84.644601    84.644601    84.644601    3.4500947   -127304.65   -127402.94 
 1570000    440.63118   -129107.69   -127285.15   -192.05308     606453.9    84.644601    84.644601    84.644601    3.4500947   -127285.15   -127357.85 
 1580000    439.83354    -129116.9   -127297.66   -244.59017     606453.9    84.644601    84.644601    84.644601    3.4500947   -127297.66   -127390.24 
 1590000    440.39987   -129111.84   -127290.26   -275.63062     606453.9    84.644601    84.644601    84.644601    3.4500947   -127290.26   -127394.59 
colvars: Synchronizing (emptying the buffer of) trajectory file "out.colvars.traj".
colvars: Writing the state file "rest.colvars.state".
 1600000    442.62304   -129111.06   -127280.28   -156.79181     606453.9    84.644601    84.644601    84.644601    3.4500947   -127280.28   -127339.63 
 1610000     441.5804   -129122.61   -127296.15   -527.67644     606453.9    84.644601    84.644601    84.644601    3.4500947   -127296.15   -127495.89 
 1620000    441.13214   -129114.25   -127289.64   -320.55136     606453.9    84.644601    84.644601    84.644601    3.4500947   -127289.64   -127410.98 
 1630000    439.22077   -129103.14   -127286.44   -212.25764     606453.9    84.644601    84.644601    84.644601    3.4500947   -127286.44   -127366.78 
 1640000    438.65606   -129095.56   -127281.19   -53.404031     606453.9    84.644601    84.644601    84.644601    3.4500947   -127281.19   -127301.41 
 1650000    442.12289   -129116.03   -127287.32   -285.71165     606453.9    84.644601    84.644601    84.644601    3.4500947   -127287.32   -127395.47 
 1660000    438.28771   -129100.11   -127287.27    -212.5346     606453.9    84.644601    84.644601    84.644601    3.4500947   -127287.27   -127367.72 
 1670000    439.63558   -129118.77   -127300.36   -307.90554     606453.9    84.644601    84.644601    84.644601    3.4500947   -127300.36    -127416.9 
 1680000    439.31433   -129122.09      -127305   -353.56494     606453.9    84.644601    84.644601    84.644601    3.4500947      -127305   -127438.83 
 1690000    438.53648   -129093.74   -127279.87   -60.061742     606453.9    84.644601    84.644601    84.644601    3.4500947   -127279.87   -127302.61 
colvars: Synchronizing (emptying the buffer of) trajectory file "out.colvars.traj".
colvars: Writing the state file "rest.colvars.state".
 1700000    437.74465   -129125.06   -127314.46   -420.53319     606453.9    84.644601    84.644601    84.644601    3.4500947   -127314.46   -127473.64 
 1710000    436.49644   -129109.79   -127304.36   -177.62469     606453.9    84.644601    84.644601    84.644601    3.4500947   -127304.36   -127371.59 
 1720000    438.69956   -129118.14   -127303.59   -249.17027     606453.9    84.644601    84.644601    84.644601    3.4500947   -127303.59    -127397.9 
 1730000    439.92519   -129112.71   -127293.09   -249.69923     606453.9    84.644601    84.644601    84.644601    3.4500947   -127293.09   -127387.61 
 1740000    441.13795   -129108.54    -127283.9   -267.67803     606453.9    84.644601    84.644601    84.644601    3.4500947    -127283.9   -127385.22 
 1750000    439.64412   -129117.74   -127299.29   -282.58387     606453.9    84.644601    84.644601    84.644601    3.4500947   -127299.29   -127406.25 
 1760000    437.41077   -129099.96   -127290.74   -120.36848     606453.9    84.644601    84.644601    84.644601    3.4500947   -127290.74    -127336.3 
 1770000    443.31721   -129113.02   -127279.37   -270.90271     606453.9    84.644601    84.644601    84.644601    3.4500947   -127279.37   -127381.91 
 1780000    443.95584   -129094.02   -127257.73   -81.058934     606453.9    84.644601    84.644601    84.644601    3.4500947   -127257.73   -127288.41 
 1790000    438.17586   -129107.31   -127294.93    -132.1461     606453.9    84.644601    84.644601    84.644601    3.4500947   -127294.93   -127344.95 
colvars: Synchronizing (emptying the buffer of) trajectory file "out.colvars.traj".
colvars: Writing the state file "rest.colvars.state".
 1800000    439.95285   -129121.89   -127302.16   -337.19335     606453.9    84.644601    84.644601    84.644601    3.4500947   -127302.16   -127429.79 
 1810000    442.01068   -129114.53   -127286.29   -239.64331     606453.9    84.644601    84.644601    84.644601    3.4500947   -127286.29      -127377 
 1820000    440.39117   -129117.26   -127295.72   -255.06646     606453.9    84.644601    84.644601    84.644601    3.4500947   -127295.72   -127392.26 
 1830000    439.87028   -129105.95   -127286.56    -220.0471     606453.9    84.644601    84.644601    84.644601    3.4500947   -127286.56   -127369.85 
 1840000    438.52477   -129102.24   -127288.42   -136.36702     606453.9    84.644601    84.644601    84.644601    3.4500947   -127288.42   -127340.03 
 1850000    442.89589   -129105.99   -127274.08   -122.30906     606453.9    84.644601    84.644601    84.644601    3.4500947   -127274.08   -127320.38 
 1860000    438.01313   -129097.89   -127286.19    -126.9829     606453.9    84.644601    84.644601    84.644601    3.4500947   -127286.19   -127334.25 
 1870000    441.67512   -129113.91   -127287.05   -307.40527     606453.9    84.644601    84.644601    84.644601    3.4500947   -127287.05   -127403.41 
 1880000     440.0024   -129123.24   -127303.31   -316.47773     606453.9    84.644601    84.644601    84.644601    3.4500947   -127303.31    -127423.1 
 1890000    437.15388   -129099.16   -127291.01   -167.40488     606453.9    84.644601    84.644601    84.644601    3.4500947   -127291.01   -127354.38 
colvars: Synchronizing (emptying the buffer of) trajectory file "out.colvars.traj".
colvars: Writing the state file "rest.colvars.state".
 1900000    439.68401   -129112.35   -127293.73   -187.20323     606453.9    84.644601    84.644601    84.644601    3.4500947   -127293.73   -127364.59 
 1910000    438.72436   -129111.21   -127296.56   -156.36846     606453.9    84.644601    84.644601    84.644601    3.4500947   -127296.56   -127355.75 
 1920000    439.64258   -129101.54   -127283.09   -63.473617     606453.9    84.644601    84.644601    84.644601    3.4500947   -127283.09   -127307.12 
 1930000    439.85004   -129105.86   -127286.56   -160.73214     606453.9    84.644601    84.644601    84.644601    3.4500947   -127286.56    -127347.4 
 1940000    442.59111   -129104.63   -127273.98   -110.45484     606453.9    84.644601    84.644601    84.644601    3.4500947   -127273.98   -127315.79 
 1950000    442.28089   -129108.36      -127279   -211.77487     606453.9    84.644601    84.644601    84.644601    3.4500947      -127279   -127359.16 
 1960000    441.37257   -129097.21   -127271.61   -66.200384     606453.9    84.644601    84.644601    84.644601    3.4500947   -127271.61   -127296.66 
 1970000    436.85775    -129107.3   -127300.37   -79.752069     606453.9    84.644601    84.644601    84.644601    3.4500947   -127300.37   -127330.56 
 1980000    442.23206   -129098.69   -127269.53   -123.27435     606453.9    84.644601    84.644601    84.644601    3.4500947   -127269.53   -127316.19 
 1990000     438.8775   -129103.97   -127288.69   -73.792133     606453.9    84.644601    84.644601    84.644601    3.4500947   -127288.69   -127316.62 
colvars: Synchronizing (emptying the buffer of) trajectory file "out.colvars.traj".
colvars: Writing the state file "rest.colvars.state".
 2000000    438.89477   -129111.24   -127295.89   -135.91945     606453.9    84.644601    84.644601    84.644601    3.4500947   -127295.89   -127347.33 
 2010000    440.84738   -129112.49   -127289.06   -195.83336     606453.9    84.644601    84.644601    84.644601    3.4500947   -127289.06   -127363.19 
 2020000    445.66875   -129109.91   -127266.54   -258.09399     606453.9    84.644601    84.644601    84.644601    3.4500947   -127266.54   -127364.23 
 2030000    441.87161   -129116.13   -127288.47   -239.94579     606453.9    84.644601    84.644601    84.644601    3.4500947   -127288.47   -127379.29 
 2040000     441.6837   -129093.99    -127267.1   -63.987677     606453.9    84.644601    84.644601    84.644601    3.4500947    -127267.1   -127291.32 
 2050000    438.44458   -129110.68   -127297.19   -259.68329     606453.9    84.644601    84.644601    84.644601    3.4500947   -127297.19   -127395.48 
 2060000    445.74842   -129097.27   -127253.57   -79.805552     606453.9    84.644601    84.644601    84.644601    3.4500947   -127253.57   -127283.78 
 2070000    437.50544   -129111.52   -127301.91   -276.12463     606453.9    84.644601    84.644601    84.644601    3.4500947   -127301.91   -127406.43 
 2080000    438.87525   -129105.15   -127289.87   -176.51935     606453.9    84.644601    84.644601    84.644601    3.4500947   -127289.87   -127356.69 
 2090000    438.06222   -129101.07   -127289.16   -165.00188     606453.9    84.644601    84.644601    84.644601    3.4500947   -127289.16   -127351.61 
colvars: Synchronizing (emptying the buffer of) trajectory file "out.colvars.traj".
colvars: Writing the state file "rest.colvars.state".
 2100000    446.37378   -129105.52   -127259.23   -58.593394     606453.9    84.644601    84.644601    84.644601    3.4500947   -127259.23   -127281.41 
 2110000    440.25268   -129095.03   -127274.06   -170.42878     606453.9    84.644601    84.644601    84.644601    3.4500947   -127274.06   -127338.57 
 2120000    441.17748   -129109.68   -127284.88   -196.37804     606453.9    84.644601    84.644601    84.644601    3.4500947   -127284.88   -127359.21 
 2130000    442.46633    -129090.7   -127260.57     104.3485     606453.9    84.644601    84.644601    84.644601    3.4500947   -127260.57   -127221.07 
 2140000    442.03679   -129113.04   -127284.69   -171.55604     606453.9    84.644601    84.644601    84.644601    3.4500947   -127284.69   -127349.63 
 2150000     444.0646    -129085.6   -127248.86    67.969311     606453.9    84.644601    84.644601    84.644601    3.4500947   -127248.86   -127223.13 
 2160000    439.38868   -129110.61   -127293.21   -208.39411     606453.9    84.644601    84.644601    84.644601    3.4500947   -127293.21   -127372.09 
 2170000    436.62265   -129104.26    -127298.3   -174.93981     606453.9    84.644601    84.644601    84.644601    3.4500947    -127298.3   -127364.52 
 2180000    439.11473   -129106.09   -127289.82   -221.54759     606453.9    84.644601    84.644601    84.644601    3.4500947   -127289.82   -127373.68 
 2190000    437.32331   -129109.07   -127300.21   -353.90228     606453.9    84.644601    84.644601    84.644601    3.4500947   -127300.21   -127434.17 
colvars: Synchronizing (emptying the buffer of) trajectory file "out.colvars.traj".
colvars: Writing the state file "rest.colvars.state".
 2200000    442.90692   -129102.56   -127270.61   -111.11424     606453.9    84.644601    84.644601    84.644601    3.4500947   -127270.61   -127312.67 
 2210000    439.03145   -129092.95   -127277.03   -97.570694     606453.9    84.644601    84.644601    84.644601    3.4500947   -127277.03   -127313.97 
 2220000    440.15259   -129112.64   -127292.08   -204.49359     606453.9    84.644601    84.644601    84.644601    3.4500947   -127292.08   -127369.49 
 2230000    436.64342   -129096.97   -127290.93    -142.9141     606453.9    84.644601    84.644601    84.644601    3.4500947   -127290.93   -127345.02 
 2240000     440.6055   -129103.81   -127281.38   -209.15796     606453.9    84.644601    84.644601    84.644601    3.4500947   -127281.38   -127360.55 
 2250000    437.40995   -129102.77   -127293.55    -213.8569     606453.9    84.644601    84.644601    84.644601    3.4500947   -127293.55    -127374.5 
 2260000    440.63734   -129093.64   -127271.08   -47.521714     606453.9    84.644601    84.644601    84.644601    3.4500947   -127271.08   -127289.07 
 2270000    443.17779   -129107.65   -127274.58   -101.18698     606453.9    84.644601    84.644601    84.644601    3.4500947   -127274.58   -127312.88 
 2280000    438.60443   -129119.66   -127305.51   -318.08662     606453.9    84.644601    84.644601    84.644601    3.4500947   -127305.51   -127425.91 
 2290000    443.24452   -129104.57   -127271.22   -171.35551     606453.9    84.644601    84.644601    84.644601    3.4500947   -127271.22   -127336.09 
colvars: Synchronizing (emptying the buffer of) trajectory file "out.colvars.traj".
colvars: Writing the state file "rest.colvars.state".
 2300000     440.6232   -129104.25   -127281.75   -242.26758     606453.9    84.644601    84.644601    84.644601    3.4500947   -127281.75   -127373.45 
 2310000    436.77387   -129113.62   -127307.04   -240.66603     606453.9    84.644601    84.644601    84.644601    3.4500947   -127307.04   -127398.14 
 2320000    443.45839   -129101.06   -127266.83   -67.756929     606453.9    84.644601    84.644601    84.644601    3.4500947   -127266.83   -127292.48 
 2330000    439.19693   -129098.17   -127281.56   -56.060132     606453.9    84.644601    84.644601    84.644601    3.4500947   -127281.56   -127302.78 
 2340000    439.45705   -129104.52   -127286.84   -196.50979     606453.9    84.644601    84.644601    84.644601    3.4500947   -127286.84   -127361.22 
 2350000    436.74358   -129113.64   -127307.18     -287.136     606453.9    84.644601    84.644601    84.644601    3.4500947   -127307.18   -127415.87 
 2360000    438.99249   -129114.78   -127299.02   -282.62444     606453.9    84.644601    84.644601    84.644601    3.4500947   -127299.02      -127406 
 2370000    440.26513   -129103.89   -127282.87   -245.86334     606453.9    84.644601    84.644601    84.644601    3.4500947   -127282.87   -127375.93 
 2380000    442.27865   -129109.91   -127280.56   -198.77149     606453.9    84.644601    84.644601    84.644601    3.4500947   -127280.56    -127355.8 
 2390000    439.02787   -129110.44   -127294.53     -218.042     606453.9    84.644601    84.644601    84.644601    3.4500947   -127294.53   -127377.07 
colvars: Synchronizing (emptying the buffer of) trajectory file "out.colvars.traj".
colvars: Writing the state file "rest.colvars.state".
 2400000    443.40025   -129094.43   -127260.44   -145.25176     606453.9    84.644601    84.644601    84.644601    3.4500947   -127260.44   -127315.42 
 2410000    438.11962    -129109.6   -127297.45   -105.98566     606453.9    84.644601    84.644601    84.644601    3.4500947   -127297.45   -127337.57 
 2420000    442.97571   -129120.79   -127288.55   -262.15202     606453.9    84.644601    84.644601    84.644601    3.4500947   -127288.55   -127387.78 
 2430000    439.71302   -129098.75   -127280.01   -39.279704     606453.9    84.644601    84.644601    84.644601    3.4500947   -127280.01   -127294.88 
 2440000    443.32743   -129108.74   -127275.05   -157.38271     606453.9    84.644601    84.644601    84.644601    3.4500947   -127275.05   -127334.63 
 2450000     439.1441   -129098.29    -127281.9   -32.573632     606453.9    84.644601    84.644601    84.644601    3.4500947    -127281.9   -127294.23 
 2460000     441.7805    -129102.3   -127275.01   -41.100909     606453.9    84.644601    84.644601    84.644601    3.4500947   -127275.01   -127290.57 
 2470000     442.9069   -129103.48   -127271.53   -127.10778     606453.9    84.644601    84.644601    84.644601    3.4500947   -127271.53   -127319.65 
 2480000    439.78952   -129110.43   -127291.38   -227.13757     606453.9    84.644601    84.644601    84.644601    3.4500947   -127291.38   -127377.35 
 2490000    438.65737   -129102.35   -127287.98   -159.82739     606453.9    84.644601    84.644601    84.644601    3.4500947   -127287.98   -127348.47 
colvars: Synchronizing (emptying the buffer of) trajectory file "out.colvars.traj".
colvars: Writing the state file "rest.colvars.state".
 2500000    439.27686   -129100.37   -127283.44   -122.39511     606453.9    84.644601    84.644601    84.644601    3.4500947   -127283.44   -127329.77 
 2510000    439.22984    -129097.7   -127280.96   -71.715044     606453.9    84.644601    84.644601    84.644601    3.4500947   -127280.96    -127308.1 
 2520000     439.5735   -129101.67   -127283.51   -251.85734     606453.9    84.644601    84.644601    84.644601    3.4500947   -127283.51   -127378.84 
 2530000    437.88166   -129099.81   -127288.64   -39.098729     606453.9    84.644601    84.644601    84.644601    3.4500947   -127288.64   -127303.44 
 2540000    442.56459    -129111.9   -127281.37   -286.25927     606453.9    84.644601    84.644601    84.644601    3.4500947   -127281.37   -127389.72 
 2550000    439.58392    -129109.2      -127291   -279.31713     606453.9    84.644601    84.644601    84.644601    3.4500947      -127291   -127396.73 
 2560000    439.94295   -129107.87   -127288.18   -194.21516     606453.9    84.644601    84.644601    84.644601    3.4500947   -127288.18   -127361.69 
 2570000    440.52647   -129110.05   -127287.95   -179.26819     606453.9    84.644601    84.644601    84.644601    3.4500947   -127287.95    -127355.8 
 2580000     443.3158   -129100.68   -127267.04   -98.139219     606453.9    84.644601    84.644601    84.644601    3.4500947   -127267.04   -127304.19 
 2590000    438.76053   -129117.76   -127302.96   -336.45877     606453.9    84.644601    84.644601    84.644601    3.4500947   -127302.96   -127430.31 
colvars: Synchronizing (emptying the buffer of) trajectory file "out.colvars.traj".
colvars: Writing the state file "rest.colvars.state".
 2600000    438.13097   -129099.38   -127287.18   -266.97961     606453.9    84.644601    84.644601    84.644601    3.4500947   -127287.18   -127388.24 
 2610000    439.90898   -129106.43   -127286.89   -220.58414     606453.9    84.644601    84.644601    84.644601    3.4500947   -127286.89   -127370.38 
 2620000    435.72972   -129118.55   -127316.29    -299.2989     606453.9    84.644601    84.644601    84.644601    3.4500947   -127316.29   -127429.58 
 2630000    441.70638   -129108.83   -127281.85   -195.74992     606453.9    84.644601    84.644601    84.644601    3.4500947   -127281.85   -127355.94 
 2640000    439.84619    -129109.8   -127290.51   -248.13355     606453.9    84.644601    84.644601    84.644601    3.4500947   -127290.51   -127384.43 
 2650000    437.09282   -129103.81    -127295.9    -284.1445     606453.9    84.644601    84.644601    84.644601    3.4500947    -127295.9   -127403.46 
 2660000    435.57041   -129111.91   -127310.31   -221.31474     606453.9    84.644601    84.644601    84.644601    3.4500947   -127310.31   -127394.08 
 2670000    441.62017   -129102.57   -127275.94   -68.021869     606453.9    84.644601    84.644601    84.644601    3.4500947   -127275.94   -127301.69 
 2680000    443.18349   -129106.42   -127273.32   -183.78246     606453.9    84.644601    84.644601    84.644601    3.4500947   -127273.32   -127342.89 
 2690000     436.9898    -129095.5   -127288.02   -67.350533     606453.9    84.644601    84.644601    84.644601    3.4500947   -127288.02   -127313.52 
colvars: Synchronizing (emptying the buffer of) trajectory file "out.colvars.traj".
colvars: Writing the state file "rest.colvars.state".
 2700000    439.95162   -129108.17   -127288.44   -166.55347     606453.9    84.644601    84.644601    84.644601    3.4500947   -127288.44   -127351.48 
 2710000     442.7662   -129099.99   -127268.62    43.530101     606453.9    84.644601    84.644601    84.644601    3.4500947   -127268.62   -127252.15 
 2720000    438.60046   -129107.54    -127293.4   -354.57841     606453.9    84.644601    84.644601    84.644601    3.4500947    -127293.4   -127427.62 
 2730000    443.61248   -129101.05   -127266.19   -103.36784     606453.9    84.644601    84.644601    84.644601    3.4500947   -127266.19   -127305.31 
 2740000    437.49483   -129085.04   -127275.48   -46.454377     606453.9    84.644601    84.644601    84.644601    3.4500947   -127275.48   -127293.06 
 2750000    439.71001   -129107.83    -127289.1   -324.51523     606453.9    84.644601    84.644601    84.644601    3.4500947    -127289.1   -127411.94 
 2760000    439.32217   -129094.85   -127277.73   -100.10243     606453.9    84.644601    84.644601    84.644601    3.4500947   -127277.73   -127315.62 
 2770000    439.02691   -129113.33   -127297.43   -210.10655     606453.9    84.644601    84.644601    84.644601    3.4500947   -127297.43   -127376.96 
 2780000    442.77279   -129089.98   -127258.59    86.370473     606453.9    84.644601    84.644601    84.644601    3.4500947   -127258.59    -127225.9 
 2790000    438.73139    -129115.9   -127301.22   -308.66853     606453.9    84.644601    84.644601    84.644601    3.4500947   -127301.22   -127418.06 
colvars: Synchronizing (emptying the buffer of) trajectory file "out.colvars.traj".
colvars: Writing the state file "rest.colvars.state".
 2800000    441.51142   -129111.61   -127285.43    -226.5964     606453.9    84.644601    84.644601    84.644601    3.4500947   -127285.43    -127371.2 
 2810000    435.11577   -129126.35   -127326.63   -474.46587     606453.9    84.644601    84.644601    84.644601    3.4500947   -127326.63   -127506.22 
 2820000    437.90632   -129103.39   -127292.12   -81.054987     606453.9    84.644601    84.644601    84.644601    3.4500947   -127292.12    -127322.8 
 2830000    439.28939   -129100.06   -127283.08   -181.52126     606453.9    84.644601    84.644601    84.644601    3.4500947   -127283.08   -127351.78 
 2840000    440.66995   -129112.12   -127289.42   -190.19648     606453.9    84.644601    84.644601    84.644601    3.4500947   -127289.42   -127361.41 
 2850000    440.68803   -129096.57    -127273.8    48.059146     606453.9    84.644601    84.644601    84.644601    3.4500947    -127273.8   -127255.61 
 2860000    440.48979   -129116.09   -127294.13   -313.47562     606453.9    84.644601    84.644601    84.644601    3.4500947   -127294.13   -127412.79 
 2870000    438.64803   -129110.08   -127295.75   -257.83796     606453.9    84.644601    84.644601    84.644601    3.4500947   -127295.75   -127393.34 
 2880000     440.8978   -129096.77   -127273.13    -284.4572     606453.9    84.644601    84.644601    84.644601    3.4500947   -127273.13    -127380.8 
 2890000    442.80328   -129099.39   -127267.87   -150.10303     606453.9    84.644601    84.644601    84.644601    3.4500947   -127267.87   -127324.69 
colvars: Synchronizing (emptying the buffer of) trajectory file "out.colvars.traj".
colvars: Writing the state file "rest.colvars.state".
 2900000    443.80258   -129111.13   -127275.47   -365.41034     606453.9    84.644601    84.644601    84.644601    3.4500947   -127275.47   -127413.79 
 2910000    437.54568   -129109.76   -127299.99   -216.35661     606453.9    84.644601    84.644601    84.644601    3.4500947   -127299.99   -127381.88 
 2920000    442.13005    -129112.7   -127283.96   -370.21556     606453.9    84.644601    84.644601    84.644601    3.4500947   -127283.96    -127424.1 
 2930000     438.8515   -129102.39   -127287.21   -71.876398     606453.9    84.644601    84.644601    84.644601    3.4500947   -127287.21   -127314.42 
 2940000    441.90368   -129096.88   -127269.08   -128.81036     606453.9    84.644601    84.644601    84.644601    3.4500947   -127269.08   -127317.83 
 2950000    439.85189   -129104.77   -127285.46   -284.05045     606453.9    84.644601    84.644601    84.644601    3.4500947   -127285.46   -127392.98 
 2960000    438.00787      -129107   -127295.32   -215.85249     606453.9    84.644601    84.644601    84.644601    3.4500947   -127295.32   -127377.02 
 2970000     439.7279   -129101.06   -127282.26    23.730853     606453.9    84.644601    84.644601    84.644601    3.4500947   -127282.26   -127273.28 
 2980000    438.65961   -129101.58    -127287.2   -173.35132     606453.9    84.644601    84.644601    84.644601    3.4500947    -127287.2   -127352.82 
 2990000    439.86025   -129116.07   -127296.72   -248.93201     606453.9    84.644601    84.644601    84.644601    3.4500947   -127296.72   -127390.95 
colvars: Synchronizing (emptying the buffer of) trajectory file "out.colvars.traj".
colvars: Writing the state file "rest.colvars.state".
 3000000    438.94203   -129104.06   -127288.51    -142.2631     606453.9    84.644601    84.644601    84.644601    3.4500947   -127288.51   -127342.36 
 3010000    441.39165   -129100.26   -127274.58   -260.94743     606453.9    84.644601    84.644601    84.644601    3.4500947   -127274.58   -127373.35 
 3020000    442.55922   -129096.67   -127266.15   -42.328895     606453.9    84.644601    84.644601    84.644601    3.4500947   -127266.15   -127282.18 
 3030000     439.4974   -129100.06   -127282.21   -255.92026     606453.9    84.644601    84.644601    84.644601    3.4500947   -127282.21   -127379.09 
 3040000    440.68612   -129109.82   -127287.06   -311.17162     606453.9    84.644601    84.644601    84.644601    3.4500947   -127287.06   -127404.84 
 3050000    439.34043      -129094   -127276.81    22.592818     606453.9    84.644601    84.644601    84.644601    3.4500947   -127276.81   -127268.25 
 3060000    441.33374   -129108.14   -127282.69   -254.90129     606453.9    84.644601    84.644601    84.644601    3.4500947   -127282.69   -127379.18 
 3070000     440.9695   -129114.97   -127291.03   -160.52899     606453.9    84.644601    84.644601    84.644601    3.4500947   -127291.03   -127351.79 
 3080000    437.99085   -129096.51    -127284.9   -135.57772     606453.9    84.644601    84.644601    84.644601    3.4500947    -127284.9   -127336.21 
 3090000    438.83015   -129109.03   -127293.94   -272.25034     606453.9    84.644601    84.644601    84.644601    3.4500947   -127293.94      -127397 
colvars: Synchronizing (emptying the buffer of) trajectory file "out.colvars.traj".
colvars: Writing the state file "rest.colvars.state".
 3100000    440.99837   -129107.28   -127283.23   -158.09702     606453.9    84.644601    84.644601    84.644601    3.4500947   -127283.23   -127343.07 
 3110000    436.72762   -129099.63   -127293.24   -178.51325     606453.9    84.644601    84.644601    84.644601    3.4500947   -127293.24   -127360.81 
 3120000    440.99209   -129114.78   -127290.75   -250.77296     606453.9    84.644601    84.644601    84.644601    3.4500947   -127290.75   -127385.68 
 3130000    438.11479   -129109.27   -127297.14   -227.25712     606453.9    84.644601    84.644601    84.644601    3.4500947   -127297.14   -127383.16 
 3140000    440.64962   -129109.62   -127287.01   -161.93003     606453.9    84.644601    84.644601    84.644601    3.4500947   -127287.01    -127348.3 
 3150000    440.49239   -129111.32   -127289.36   -312.75715     606453.9    84.644601    84.644601    84.644601    3.4500947   -127289.36   -127407.74 
 3160000    438.29434   -129116.85   -127303.98   -291.70232     606453.9    84.644601    84.644601    84.644601    3.4500947   -127303.98   -127414.39 
 3170000    437.50014   -129092.53   -127282.94   -87.512879     606453.9    84.644601    84.644601    84.644601    3.4500947   -127282.94   -127316.07 
 3180000    440.92032   -129103.48   -127279.74   -161.43938     606453.9    84.644601    84.644601    84.644601    3.4500947   -127279.74   -127340.85 
 3190000    436.38602   -129112.73   -127307.75   -297.01876     606453.9    84.644601    84.644601    84.644601    3.4500947   -127307.75   -127420.18 
colvars: Synchronizing (emptying the buffer of) trajectory file "out.colvars.traj".
colvars: Writing the state file "rest.colvars.state".
 3200000    438.81553    -129099.7   -127284.67   -152.44759     606453.9    84.644601    84.644601    84.644601    3.4500947   -127284.67   -127342.38 
 3210000    437.81049   -129115.77    -127304.9   -333.38529     606453.9    84.644601    84.644601    84.644601    3.4500947    -127304.9    -127431.1 
 3220000     443.0757    -129089.7   -127257.05     84.87201     606453.9    84.644601    84.644601    84.644601    3.4500947   -127257.05   -127224.93 
 3230000    436.46178   -129103.56   -127298.27   -211.08472     606453.9    84.644601    84.644601    84.644601    3.4500947   -127298.27   -127378.17 
 3240000     438.7673   -129099.31   -127284.49   -96.226443     606453.9    84.644601    84.644601    84.644601    3.4500947   -127284.49   -127320.91 
 3250000    440.03203   -129088.21   -127268.15   -155.99138     606453.9    84.644601    84.644601    84.644601    3.4500947   -127268.15    -127327.2 
 3260000    439.75655   -129106.87   -127287.95   -287.01217     606453.9    84.644601    84.644601    84.644601    3.4500947   -127287.95   -127396.59 
 3270000    442.79295   -129105.05   -127273.57   -229.15552     606453.9    84.644601    84.644601    84.644601    3.4500947   -127273.57   -127360.31 
 3280000     437.4312   -129102.91   -127293.61   -177.72262     606453.9    84.644601    84.644601    84.644601    3.4500947   -127293.61   -127360.88 
 3290000    443.17484   -129113.75    -127280.7   -174.67887     606453.9    84.644601    84.644601    84.644601    3.4500947    -127280.7   -127346.82 
colvars: Synchronizing (emptying the buffer of) trajectory file "out.colvars.traj".
colvars: Writing the state file "rest.colvars.state".
 3300000    440.75931   -129101.29   -127278.22   -136.23516     606453.9    84.644601    84.644601    84.644601    3.4500947   -127278.22   -127329.79 
 3310000     441.1591   -129097.84   -127273.12   -97.525758     606453.9    84.644601    84.644601    84.644601    3.4500947   -127273.12   -127310.03 
 3320000    441.43912   -129118.57    -127292.7   -209.60556     606453.9    84.644601    84.644601    84.644601    3.4500947    -127292.7   -127372.04 
[...]
colvars: Synchronizing (emptying the buffer of) trajectory file "out.colvars.traj".
colvars: Writing the state file "rest.colvars.state".
 8900000    435.74493    -129117.9   -127315.57   -275.95365     606453.9    84.644601    84.644601    84.644601    3.4500947   -127315.57   -127420.03 
 8910000    436.35031   -129109.43    -127304.6   -183.47173     606453.9    84.644601    84.644601    84.644601    3.4500947    -127304.6   -127374.05 
 8920000    439.17098   -129098.17   -127281.68    -150.2408     606453.9    84.644601    84.644601    84.644601    3.4500947   -127281.68   -127338.55 
 8930000    437.58361   -129103.01   -127293.08   -186.23364     606453.9    84.644601    84.644601    84.644601    3.4500947   -127293.08   -127363.57 
 8940000    438.93569   -129099.97   -127284.45   -190.47349     606453.9    84.644601    84.644601    84.644601    3.4500947   -127284.45   -127356.54 
 8950000    441.67708    -129108.6   -127281.74   -237.32052     606453.9    84.644601    84.644601    84.644601    3.4500947   -127281.74   -127371.57 
 8960000    441.94821   -129112.92   -127284.94   -138.44467     606453.9    84.644601    84.644601    84.644601    3.4500947   -127284.94   -127337.34 
 8970000     442.1309   -129106.59   -127277.85   -240.86095     606453.9    84.644601    84.644601    84.644601    3.4500947   -127277.85   -127369.02 
 8980000    439.48078   -129120.79   -127303.01   -355.40352     606453.9    84.644601    84.644601    84.644601    3.4500947   -127303.01   -127437.54 
 8990000    443.49632   -129118.61   -127284.22   -279.76369     606453.9    84.644601    84.644601    84.644601    3.4500947   -127284.22   -127390.12 
colvars: Synchronizing (emptying the buffer of) trajectory file "out.colvars.traj".
colvars: Writing the state file "rest.colvars.state".
 9000000    436.98725   -129108.06   -127300.59   -198.06183     606453.9    84.644601    84.644601    84.644601    3.4500947   -127300.59   -127375.56 
 9010000    441.43643   -129123.74   -127297.87   -381.32372     606453.9    84.644601    84.644601    84.644601    3.4500947   -127297.87   -127442.21 
 9020000    441.63208   -129113.22   -127286.55   -354.91057     606453.9    84.644601    84.644601    84.644601    3.4500947   -127286.55   -127420.89 
 9030000     440.9126    -129087.3    -127263.6    9.0573351     606453.9    84.644601    84.644601    84.644601    3.4500947    -127263.6   -127260.17 
 9040000    440.02526   -129097.04   -127277.01   -106.50375     606453.9    84.644601    84.644601    84.644601    3.4500947   -127277.01   -127317.32 
 9050000    440.34256   -129100.93   -127279.58   -117.67613     606453.9    84.644601    84.644601    84.644601    3.4500947   -127279.58   -127324.13 
 9060000    438.29625   -129121.25   -127308.37   -406.48234     606453.9    84.644601    84.644601    84.644601    3.4500947   -127308.37   -127462.24 
 9070000    440.85256   -129100.69   -127277.24   -57.043435     606453.9    84.644601    84.644601    84.644601    3.4500947   -127277.24   -127298.83 
 9080000    441.31513   -129100.43   -127275.07   -98.245203     606453.9    84.644601    84.644601    84.644601    3.4500947   -127275.07   -127312.26 
 9090000    439.52785   -129121.56   -127303.59     -250.801     606453.9    84.644601    84.644601    84.644601    3.4500947   -127303.59   -127398.52 
colvars: Synchronizing (emptying the buffer of) trajectory file "out.colvars.traj".
colvars: Writing the state file "rest.colvars.state".
 9100000    438.30748    -129109.2   -127296.27   -319.17671     606453.9    84.644601    84.644601    84.644601    3.4500947   -127296.27   -127417.09 
 9110000    443.37071   -129087.06   -127253.19   -2.6940368     606453.9    84.644601    84.644601    84.644601    3.4500947   -127253.19   -127254.21 
 9120000     440.6503   -129095.12   -127272.51    -82.51697     606453.9    84.644601    84.644601    84.644601    3.4500947   -127272.51   -127303.74 
 9130000    439.45838   -129115.95   -127298.27   -204.08048     606453.9    84.644601    84.644601    84.644601    3.4500947   -127298.27   -127375.52 
 9140000    438.92801   -129099.13   -127283.64   -44.438037     606453.9    84.644601    84.644601    84.644601    3.4500947   -127283.64   -127300.46 
 9150000    442.49774   -129111.76    -127281.5    -235.2223     606453.9    84.644601    84.644601    84.644601    3.4500947    -127281.5   -127370.54 
 9160000    439.61161   -129115.85   -127297.53   -278.67893     606453.9    84.644601    84.644601    84.644601    3.4500947   -127297.53   -127403.02 
 9170000    437.04395   -129118.36   -127310.66   -281.39096     606453.9    84.644601    84.644601    84.644601    3.4500947   -127310.66   -127417.17 
 9180000    442.28995    -129117.3    -127287.9   -353.33322     606453.9    84.644601    84.644601    84.644601    3.4500947    -127287.9   -127421.65 
 9190000    444.39151   -129110.45   -127272.36   -332.00648     606453.9    84.644601    84.644601    84.644601    3.4500947   -127272.36   -127398.03 
colvars: Synchronizing (emptying the buffer of) trajectory file "out.colvars.traj".
colvars: Writing the state file "rest.colvars.state".
 9200000      440.231   -129104.23   -127283.35     -358.783     606453.9    84.644601    84.644601    84.644601    3.4500947   -127283.35   -127419.15 
 9210000    439.81682   -129105.18   -127286.01   -192.54774     606453.9    84.644601    84.644601    84.644601    3.4500947   -127286.01    -127358.9 
 9220000    441.64397   -129113.62    -127286.9   -255.35432     606453.9    84.644601    84.644601    84.644601    3.4500947    -127286.9   -127383.55 
 9230000    437.86529   -129104.69   -127293.59   -207.56548     606453.9    84.644601    84.644601    84.644601    3.4500947   -127293.59   -127372.16 
 9240000    440.48844   -129103.57   -127281.62    -166.3206     606453.9    84.644601    84.644601    84.644601    3.4500947   -127281.62   -127344.58 
 9250000    440.69988   -129097.67   -127274.85   -179.09469     606453.9    84.644601    84.644601    84.644601    3.4500947   -127274.85   -127342.64 
 9260000    439.08724   -129096.02   -127279.87   -199.52588     606453.9    84.644601    84.644601    84.644601    3.4500947   -127279.87    -127355.4 
 9270000    443.23321   -129102.06   -127268.76   -235.68659     606453.9    84.644601    84.644601    84.644601    3.4500947   -127268.76   -127357.97 
 9280000    441.60554   -129104.22   -127277.65   -207.97282     606453.9    84.644601    84.644601    84.644601    3.4500947   -127277.65   -127356.37 
 9290000    435.79453   -129091.66   -127289.12   -166.34332     606453.9    84.644601    84.644601    84.644601    3.4500947   -127289.12   -127352.09 
colvars: Synchronizing (emptying the buffer of) trajectory file "out.colvars.traj".
colvars: Writing the state file "rest.colvars.state".
 9300000    438.36366   -129101.12   -127287.96   -126.87766     606453.9    84.644601    84.644601    84.644601    3.4500947   -127287.96   -127335.99 
 9310000    440.15139   -129090.41   -127269.86     40.03873     606453.9    84.644601    84.644601    84.644601    3.4500947   -127269.86    -127254.7 
 9320000     439.5585   -129097.18   -127279.08   -142.41152     606453.9    84.644601    84.644601    84.644601    3.4500947   -127279.08   -127332.99 
 9330000    438.40187   -129108.85   -127295.54   -336.05505     606453.9    84.644601    84.644601    84.644601    3.4500947   -127295.54   -127422.74 
 9340000    441.48507   -129103.01   -127276.95   -235.18449     606453.9    84.644601    84.644601    84.644601    3.4500947   -127276.95   -127365.97 
 9350000    443.93566   -129119.14   -127282.94   -364.96643     606453.9    84.644601    84.644601    84.644601    3.4500947   -127282.94   -127421.08 
 9360000    439.11295   -129099.98   -127283.73   -243.38081     606453.9    84.644601    84.644601    84.644601    3.4500947   -127283.73   -127375.85 
 9370000    437.26471   -129114.59   -127305.98   -312.74592     606453.9    84.644601    84.644601    84.644601    3.4500947   -127305.98   -127424.36 
 9380000    439.62621   -129106.59   -127288.21   -163.33445     606453.9    84.644601    84.644601    84.644601    3.4500947   -127288.21   -127350.03 
 9390000    440.29038   -129098.96   -127277.84    -18.41525     606453.9    84.644601    84.644601    84.644601    3.4500947   -127277.84   -127284.81 
colvars: Synchronizing (emptying the buffer of) trajectory file "out.colvars.traj".
colvars: Writing the state file "rest.colvars.state".
 9400000    440.32191    -129105.3   -127284.04   -231.02629     606453.9    84.644601    84.644601    84.644601    3.4500947   -127284.04   -127371.49 
 9410000    440.21528   -129106.34   -127285.53   -139.12769     606453.9    84.644601    84.644601    84.644601    3.4500947   -127285.53   -127338.19 
 9420000    439.99177   -129087.93   -127268.04   -2.4091995     606453.9    84.644601    84.644601    84.644601    3.4500947   -127268.04   -127268.95 
 9430000     442.8441   -129094.47   -127262.78   -69.053638     606453.9    84.644601    84.644601    84.644601    3.4500947   -127262.78   -127288.92 
 9440000     442.4818   -129107.39    -127277.2   -117.33881     606453.9    84.644601    84.644601    84.644601    3.4500947    -127277.2   -127321.62 
 9450000    439.61575   -129111.53   -127293.19   -202.75916     606453.9    84.644601    84.644601    84.644601    3.4500947   -127293.19   -127369.94 
 9460000    439.09015   -129110.18   -127294.02    -282.6334     606453.9    84.644601    84.644601    84.644601    3.4500947   -127294.02      -127401 
 9470000    440.22566   -129119.84   -127298.98   -300.34811     606453.9    84.644601    84.644601    84.644601    3.4500947   -127298.98   -127412.67 
 9480000     441.7716   -129098.03   -127270.77   -43.909673     606453.9    84.644601    84.644601    84.644601    3.4500947   -127270.77   -127287.39 
 9490000     439.9809   -129105.83   -127285.99    -189.0516     606453.9    84.644601    84.644601    84.644601    3.4500947   -127285.99   -127357.55 
colvars: Synchronizing (emptying the buffer of) trajectory file "out.colvars.traj".
colvars: Writing the state file "rest.colvars.state".
 9500000    441.03172   -129101.28   -127277.09   -128.11337     606453.9    84.644601    84.644601    84.644601    3.4500947   -127277.09   -127325.58 
 9510000    440.77109   -129113.34   -127290.22   -356.09424     606453.9    84.644601    84.644601    84.644601    3.4500947   -127290.22   -127425.01 
 9520000    436.68668   -129111.98   -127305.76   -261.72257     606453.9    84.644601    84.644601    84.644601    3.4500947   -127305.76   -127404.83 
 9530000    441.41261   -129110.89   -127285.12   -240.09976     606453.9    84.644601    84.644601    84.644601    3.4500947   -127285.12      -127376 
 9540000    441.18978   -129095.65    -127270.8    -111.3608     606453.9    84.644601    84.644601    84.644601    3.4500947    -127270.8   -127312.96 
 9550000    436.03297   -129119.89   -127316.38   -319.23152     606453.9    84.644601    84.644601    84.644601    3.4500947   -127316.38   -127437.21 
 9560000    438.18378   -129109.48   -127297.07   -265.72138     606453.9    84.644601    84.644601    84.644601    3.4500947   -127297.07   -127397.65 
 9570000    438.72802   -129097.56   -127282.89   -161.66464     606453.9    84.644601    84.644601    84.644601    3.4500947   -127282.89   -127344.08 
 9580000    442.70097   -129110.72   -127279.62   -191.16552     606453.9    84.644601    84.644601    84.644601    3.4500947   -127279.62   -127351.98 
 9590000    439.57852   -129095.92   -127277.74   -201.27237     606453.9    84.644601    84.644601    84.644601    3.4500947   -127277.74   -127353.92 
colvars: Synchronizing (emptying the buffer of) trajectory file "out.colvars.traj".
colvars: Writing the state file "rest.colvars.state".
 9600000    436.77653   -129108.89   -127302.29   -312.54895     606453.9    84.644601    84.644601    84.644601    3.4500947   -127302.29    -127420.6 
 9610000    440.29941   -129113.06    -127291.9   -249.21372     606453.9    84.644601    84.644601    84.644601    3.4500947    -127291.9   -127386.23 
 9620000    436.51482   -129109.43   -127303.92   -190.85791     606453.9    84.644601    84.644601    84.644601    3.4500947   -127303.92   -127376.16 
 9630000    438.94174   -129109.31   -127293.77   -238.96369     606453.9    84.644601    84.644601    84.644601    3.4500947   -127293.77   -127384.22 
 9640000     440.4211   -129096.03   -127274.37   -68.051382     606453.9    84.644601    84.644601    84.644601    3.4500947   -127274.37   -127300.12 
 9650000    441.48156   -129096.75   -127270.69   -84.485828     606453.9    84.644601    84.644601    84.644601    3.4500947   -127270.69   -127302.67 
 9660000    440.56845      -129109   -127286.72   -159.71044     606453.9    84.644601    84.644601    84.644601    3.4500947   -127286.72   -127347.18 
 9670000    441.67202   -129109.12   -127282.28   -195.63826     606453.9    84.644601    84.644601    84.644601    3.4500947   -127282.28   -127356.33 
 9680000    439.34211   -129105.79   -127288.58   -249.32897     606453.9    84.644601    84.644601    84.644601    3.4500947   -127288.58   -127382.96 
 9690000    439.31671   -129103.58   -127286.48   -124.64739     606453.9    84.644601    84.644601    84.644601    3.4500947   -127286.48   -127333.66 
colvars: Synchronizing (emptying the buffer of) trajectory file "out.colvars.traj".
colvars: Writing the state file "rest.colvars.state".
 9700000    439.15383    -129107.4   -127290.97   -164.98022     606453.9    84.644601    84.644601    84.644601    3.4500947   -127290.97   -127353.42 
 9710000    440.14654   -129115.67   -127295.14    -257.9147     606453.9    84.644601    84.644601    84.644601    3.4500947   -127295.14   -127392.76 
 9720000    439.43822   -129099.83   -127282.23    -181.2808     606453.9    84.644601    84.644601    84.644601    3.4500947   -127282.23   -127350.85 
 9730000    439.90196   -129110.07   -127290.55   -80.593563     606453.9    84.644601    84.644601    84.644601    3.4500947   -127290.55   -127321.06 
 9740000    442.26678   -129102.51    -127273.2   -126.39658     606453.9    84.644601    84.644601    84.644601    3.4500947    -127273.2   -127321.05 
 9750000    439.48599   -129092.53   -127274.73   -135.71806     606453.9    84.644601    84.644601    84.644601    3.4500947   -127274.73    -127326.1 
 9760000    435.09925   -129109.38   -127309.73   -255.01613     606453.9    84.644601    84.644601    84.644601    3.4500947   -127309.73   -127406.26 
 9770000    438.06831   -129112.04    -127300.1   -263.92866     606453.9    84.644601    84.644601    84.644601    3.4500947    -127300.1      -127400 
 9780000    441.93163   -129120.73   -127292.81   -319.90356     606453.9    84.644601    84.644601    84.644601    3.4500947   -127292.81    -127413.9 
 9790000    439.37584   -129108.22   -127290.87   -279.48887     606453.9    84.644601    84.644601    84.644601    3.4500947   -127290.87   -127396.66 
colvars: Synchronizing (emptying the buffer of) trajectory file "out.colvars.traj".
colvars: Writing the state file "rest.colvars.state".
 9800000    441.20804   -129106.59   -127281.67   -170.38143     606453.9    84.644601    84.644601    84.644601    3.4500947   -127281.67   -127346.16 
 9810000    438.32201   -129105.23   -127292.24    -229.0394     606453.9    84.644601    84.644601    84.644601    3.4500947   -127292.24   -127378.94 
 9820000    442.04827   -129097.05   -127268.65    2.2180602     606453.9    84.644601    84.644601    84.644601    3.4500947   -127268.65   -127267.81 
 9830000    442.46271   -129108.84   -127278.73   -283.38896     606453.9    84.644601    84.644601    84.644601    3.4500947   -127278.73      -127386 
 9840000    441.75146      -129107   -127279.83   -210.85009     606453.9    84.644601    84.644601    84.644601    3.4500947   -127279.83   -127359.64 
 9850000     438.0996   -129094.73   -127282.66   -69.553223     606453.9    84.644601    84.644601    84.644601    3.4500947   -127282.66   -127308.99 
 9860000    440.31517   -129100.11   -127278.88   -38.824227     606453.9    84.644601    84.644601    84.644601    3.4500947   -127278.88   -127293.57 
 9870000    442.22462   -129100.08   -127270.95   -147.31182     606453.9    84.644601    84.644601    84.644601    3.4500947   -127270.95   -127326.71 
 9880000    439.06008   -129116.02   -127299.98   -282.94117     606453.9    84.644601    84.644601    84.644601    3.4500947   -127299.98   -127407.08 
 9890000    439.67409   -129110.72   -127292.14   -301.36059     606453.9    84.644601    84.644601    84.644601    3.4500947   -127292.14   -127406.21 
colvars: Synchronizing (emptying the buffer of) trajectory file "out.colvars.traj".
colvars: Writing the state file "rest.colvars.state".
 9900000    438.48031   -129118.06   -127304.42   -281.98137     606453.9    84.644601    84.644601    84.644601    3.4500947   -127304.42   -127411.15 
 9910000     438.3474   -129116.39    -127303.3   -164.73742     606453.9    84.644601    84.644601    84.644601    3.4500947    -127303.3   -127365.65 
 9920000    439.69921   -129113.38    -127294.7   -214.56546     606453.9    84.644601    84.644601    84.644601    3.4500947    -127294.7   -127375.91 
 9930000    438.63767   -129119.05   -127304.76   -272.58558     606453.9    84.644601    84.644601    84.644601    3.4500947   -127304.76   -127407.93 
 9940000    439.16466   -129110.44   -127293.97   -271.70783     606453.9    84.644601    84.644601    84.644601    3.4500947   -127293.97   -127396.81 
 9950000    441.02082   -129099.99   -127275.84   -31.045599     606453.9    84.644601    84.644601    84.644601    3.4500947   -127275.84   -127287.59 
 9960000    440.97188   -129110.16   -127286.21   -113.33658     606453.9    84.644601    84.644601    84.644601    3.4500947   -127286.21   -127329.11 
 9970000    441.12157   -129117.16    -127292.6   -283.89383     606453.9    84.644601    84.644601    84.644601    3.4500947    -127292.6   -127400.06 
 9980000    437.26287   -129110.39   -127301.78   -220.22176     606453.9    84.644601    84.644601    84.644601    3.4500947   -127301.78   -127385.14 
 9990000    439.13846   -129105.26    -127288.9   -205.02994     606453.9    84.644601    84.644601    84.644601    3.4500947    -127288.9    -127366.5 
colvars: Synchronizing (emptying the buffer of) trajectory file "out.colvars.traj".
colvars: Writing the state file "rest.colvars.state".
10000000    438.51874   -129117.34   -127303.54   -333.30661     606453.9    84.644601    84.644601    84.644601    3.4500947   -127303.54    -127429.7 
Loop time of 32431.8 on 84 procs for 10000000 steps with 32000 atoms

Performance: 53.281 ns/day, 0.450 hours/ns, 308.339 timesteps/s
99.9% CPU use with 84 MPI tasks x 1 OpenMP threads

MPI task timing breakdown:
Section |  min time  |  avg time  |  max time  |%varavg| %total
---------------------------------------------------------------
Pair    | 21664      | 22560      | 23533      | 260.7 | 69.56
Neigh   | 301.54     | 316.16     | 338.46     |  46.9 |  0.97
Comm    | 1608.1     | 2779.4     | 3842.7     | 746.8 |  8.57
Output  | 1.3652     | 1.3808     | 1.6566     |   2.6 |  0.00
Modify  | 6105.3     | 6450.6     | 6983       | 254.2 | 19.89
Other   |            | 323.9      |            |       |  1.00

Nlocal:    380.952 ave 392 max 365 min
Histogram: 1 4 3 5 13 21 8 16 7 6
Nghost:    2979.18 ave 3007 max 2957 min
Histogram: 7 8 10 8 10 19 9 9 2 2
Neighs:    41940.2 ave 44108 max 39136 min
Histogram: 2 1 3 13 13 16 17 7 4 8

Total # of neighbors = 3522981
Ave neighs/atom = 110.093
Neighbor list builds = 273366
Dangerous builds = 0
colvars: Saving collective variables state to "out.colvars.state".
colvars: Resetting the Collective Variables Module.

Please see the log.cite file for references relevant to this simulation

Total wall time: 9:05:15
