# LAMMPS data file written by OVITO
32000 atoms
2 atom types
-6.1234722 78.5234757 xlo xhi
-6.1234722 78.5234757 ylo yhi
-6.1234722 78.5234757 zlo zhi

Atoms # atomic

1 1 64.7253037 9.8748798 11.6997004
2 2 53.857399 58.0985985 25.3272991
3 1 17.0394993 39.242199 30.3079014
4 1 55.6587982 65.4848023 19.0806007
5 1 70.6716004 52.6936989 -1.65035
6 1 4.3593702 56.958004 -2.3970599
7 1 50.902401 42.5318985 23.2740994
8 2 15.8676996 78.2200012 50.5786019
9 1 30.0543003 3.0509901 59.885399
10 1 65.3659973 65.5279999 59.3862991
11 1 59.8903046 45.832901 63.8653946
12 1 68.3684998 67.7814026 15.4821997
13 1 21.6875992 55.5880013 50.7919007
14 1 41.5353012 41.8330002 20.8104992
15 1 75.8900986 17.3176994 57.955803
16 1 46.337101 1.72802 -3.6198001
17 1 38.3866005 21.0918007 59.6282997
18 1 72.1832962 73.5904007 16.1567001
19 1 56.5327988 4.8565102 73.7531967
20 1 -4.8046198 24.3139992 33.8361016
21 1 0.563306 59.0405998 63.8119049
22 1 34.426899 31.1205978 59.0867958
23 1 74.6212006 54.3299027 4.1075506
24 1 4.16782 26.7117996 -3.5337301
25 1 20.8698998 -3.76334 4.5549898
26 1 13.0093002 74.6055985 45.028801
27 1 33.7487984 60.2913017 49.4631005
28 1 29.6675015 4.4368301 55.3665009
29 2 61.1669998 30.982401 8.8899298
30 1 73.8011017 46.4953003 32.6990013
31 1 6.3815098 65.3044968 25.6641007
32 1 32.8156014 62.4361992 44.6428986
33 1 4.8279 38.9138986 18.2192001
34 1 46.3636017 44.1066017 53.6865998
35 1 60.6351052 75.723999 -0.847631
36 1 65.2975998 26.8556996 66.6557007
37 1 56.4262963 69.5206986 24.5501995
38 1 68.554802 63.0145035 53.2291985
39 1 68.8237 6.4928198 24.1182995
40 1 14.2054997 29.7695008 76.376297
41 1 12.5305004 43.3134995 12.3332996
42 1 18.9004994 76.4004974 59.4519997
43 1 73.1751022 69.6864014 19.5114002
44 1 29.3505001 21.0251999 30.5424996
45 1 9.9659596 68.8414002 1.78028
46 1 71.856102 58.4791985 52.2834015
47 1 27.3836002 22.5632992 45.3546982
48 1 38.3605995 36.7654991 32.8268013
49 1 38.0751991 61.3478966 68.9143982
50 1 70.0201035 27.9881992 60.8599052
51 1 13.1964998 46.5136986 68.9982986
52 1 -3.6647401 3.7881801 72.405098
53 1 30.2014999 35.3686981 37.346199
54 1 60.3252983 5.5678802 12.0473003
55 1 31.4680996 45.367199 12.4778996
56 1 3.0011301 28.5339012 55.1166992
57 1 66.0585022 56.2014008 29.1056995
58 1 -4.2619701 27.7768002 48.5262985
59 1 20.0091991 21.6893997 63.9587022
60 1 9.8404304 12.7961998 36.6342011
61 1 74.1895981 41.7831993 26.0601006
62 1 76.5585022 -4.3305602 43.1334
63 1 47.351799 11.6549998 20.6798992
64 1 58.6302986 -3.5562601 29.3377991
65 1 56.5836983 8.1308203 36.9835014
66 1 0.98649 18.7082997 27.0307007
67 1 55.8790016 22.5491009 45.3370018
68 1 21.3267994 27.9099008 11.8354998
69 1 59.2547951 54.614399 18.0093002
70 1 49.1021004 9.8370505 25.8519994
71 2 22.9927998 76.5296021 2.4818201
72 1 71.1685028 13.6587 -1.48016
73 1 29.1618023 46.6651993 -2.7509301
74 1 30.5277977 61.7689018 20.5133991
75 2 72.5793991 66.6272965 2.6682101
76 2 24.9578 39.8709984 26.6627007
77 1 10.0530005 24.3111992 -5.0240898
78 1 26.5723992 67.2528 23.9293996
79 1 24.4612007 16.1840992 28.4787998
80 2 70.5698014 2.83124 73.2104035
81 1 35.1153984 76.3499985 50.7300987
82 1 27.605402 7.1578002 38.0087013
83 1 11.3987999 2.39218 69.9515992
84 1 4.16993 12.8304005 8.0615797
85 1 47.5842018 37.5415993 9.7454596
86 1 78.4664002 30.0541992 68.3733978
87 1 14.8609 16.2227001 60.5382004
88 1 57.7633019 21.1905994 49.5154
89 1 40.8740006 24.0007 2.7611599
90 1 46.6211014 68.5961991 20.0076008
91 1 61.2047997 25.7241001 16.7262001
92 1 34.2635994 19.9337998 28.0037975
93 1 6.3600106 47.2667008 2.21258
94 1 40.0565987 0.086583 76.9876022
95 2 33.8847008 44.2529984 43.9804994
96 1 36.3412018 -3.0902801 9.2104902
97 1 27.5488987 63.6279984 75.8003998
98 1 -0.769231 78.061203 9.1232996
99 1 46.5293999 61.0560951 47.2136994
100 1 68.145401 62.277195 32.4453011
101 2 2.3599301 64.9027024 73.0836029
102 1 15.5256996 19.5559998 -3.45401
103 1 32.6717987 27.2168999 4.7437601
104 1 76.1554031 37.2340012 29.2283993
105 1 71.8186035 57.9891014 36.9847984
106 1 6.8993802 43.642601 12.4172001
107 1 -1.68801 73.8486024 1.01113
108 1 35.1720009 59.2359047 24.5522003
109 2 1.0387599 -4.7602601 -2.5065301
110 2 8.1881304 61.158699 34.9048996
111 1 21.3351002 26.2935009 44.4616013
112 2 11.0799999 51.6128006 -5.39149
113 1 73.8025971 49.2187996 14.8540002
114 2 69.4623032 21.7427006 50.2029991
115 1 28.8687992 34.771801 6.7335506
116 1 69.3526001 15.5028 54.1587982
117 1 64.5411988 65.0445023 -5.8257399
118 1 47.0691986 11.5004998 16.3785992
119 1 14.2653999 52.5881005 73.0988007
120 1 22.7565003 65.5523987 38.7491989
121 1 68.0065002 33.1745987 54.3306999
122 1 62.4564018 3.2577801 1.5866602
123 1 3.3023 51.2322998 67.6184998
124 1 73.4154968 73.6493988 4.8797002
125 1 40.0565987 -5.8465 61.1819954
126 2 65.3322983 74.158699 54.286499
127 1 34.217701 57.9874002 70.2725983
128 1 -1.60357 41.9305992 73.8388978
129 1 10.3976002 7.2578602 35.7713013
130 1 44.5637017 66.164299 20.7730999
131 1 6.0071998 59.8998986 8.3009596
132 2 75.867302 8.0743599 2.1805501
133 1 57.3113976 14.2837 18.6030007
134 1 48.2616997 52.0410004 49.5946007
135 1 26.7374993 46.8566018 -4.71981
136 1 60.1475983 61.219101 -1.23644
137 1 33.8406982 67.1852036 17.4761009
138 1 -5.06879 53.544899 19.8652992
139 1 63.2779961 1.841 34.5396996
140 1 4.0626898 30.2264004 53.0399017
141 2 0.46603 53.5536003 41.8286019
142 1 74.7109986 33.9981004 13.1627998
143 1 -5.2726998 -2.7035001 50.1661987
144 1 57.8883018 67.5253983 56.8688012
145 1 57.8324051 41.9370004 9.2332602
146 1 57.9257012 0.312438 70.9322968
147 1 37.5130005 66.7556992 75.2477036
148 1 -4.5922899 51.2751999 10.0504999
149 1 68.1147995 68.6363983 63.8241005
150 1 31.3540001 43.7930985 70.4400025
151 1 48.2664986 75.1929016 42.5637017
152 1 8.4382601 58.8869058 57.5577011
153 1 13.7467013 36.4380989 4.6747699
154 1 25.2297993 66.7958985 71.8927002
155 1 30.2228985 2.45135 6.5545202
156 1 5.6412707 74.6166992 38.9813004
157 1 -4.9060898 64.6154022 7.6933599
158 1 0.531233 26.1753006 52.9986
159 1 6.3641501 46.328701 30.2241001
160 1 12.9747 60.3764 21.8666
161 1 6.4691201 1.4581 8.3737602
162 1 46.1358986 76.7885971 53.8572998
163 1 9.11899 74.5033036 -2.4863401
164 1 39.6649018 -0.0677199 11.3017998
165 1 55.3420982 -4.7856102 -3.91705
166 1 7.7890105 56.736599 2.94924
167 1 9.7588301 3.4914 26.2248993
168 1 25.9636002 77.3809967 13.5716
169 1 46.9364014 54.1996994 -4.4038501
170 1 44.8942986 76.0211029 3.6154101
171 2 43.1469994 25.2887993 35.5004998
172 1 63.8646966 68.2074966 -0.222565
173 1 74.5203018 11.3086996 -5.00878
174 1 14.2212 44.1352005 3.6487601
175 1 12.1976996 37.5251999 60.891304
176 1 25.1212006 61.8953018 59.3069
177 1 47.7388001 64.5675965 24.7019997
178 1 40.4626999 40.4025993 13.5165005
179 1 2.0195999 46.7481995 28.2396984
180 1 37.7364006 43.8541986 69.8626022
181 1 45.2140007 13.978099 32.0774002
182 1 6.5746699 74.9693986 48.3014984
183 2 9.9138212 34.6511002 30.2332001
184 1 66.4639969 24.4393006 3.2135899
185 1 26.9159012 76.4001007 66.978798
186 1 23.5561009 75.6042023 58.7631989
187 1 14.0467997 38.2588005 -5.8817602
188 2 63.6264 23.7758999 8.1059303
189 1 62.4203949 -1.55605 52.1876984
190 1 61.7893944 14.5227013 72.4890976
191 1 51.0834999 33.668499 -0.439295
192 2 66.0979996 62.1035004 49.3501015
193 1 23.3456001 30.1361027 20.0035992
194 1 17.5282002 17.7759991 74.9786988
195 2 20.9396 29.8724996 31.4731999
196 1 3.41768 0.111579 76.032402
197 1 34.0306015 57.1934013 64.5496979
198 1 19.8850994 66.6006012 2.8425902
199 1 59.8502008 9.6322899 48.5971985
200 1 13.890501 54.4843025 45.7075005
201 1 42.5862999 11.7888003 12.9784002
202 1 55.2327995 -5.90934 11.3081999
203 1 14.8416004 64.3452988 35.6831017
204 1 7.61092 21.0224991 53.5409012
205 1 54.2184944 20.8679008 70.7705994
206 1 73.7767029 75.9840012 50.5582009
207 1 7.6324201 24.6541004 48.9392014
208 1 -5.1888199 78.3471985 62.2933998
209 1 21.3495999 72.6020966 5.5249601
210 1 76.4076004 11.9715004 30.5231991
211 1 20.8239002 54.3507004 41.7709008
212 1 25.1429997 52.3154984 45.8125
213 1 14.1647997 7.9984298 1.93934
214 1 9.0838604 71.4917984 2.98522
215 2 49.368599 8.6475897 50.6652985
216 2 39.7896004 20.0625 17.5641995
217 1 60.2790985 19.8085003 54.920601
218 1 18.6912003 26.5393009 70.7352982
219 1 24.3134995 61.1040001 54.1239052
220 1 24.9447994 9.8766604 35.9522018
221 1 74.9076996 11.8121996 23.2049999
222 1 51.8224983 34.0247002 23.6788998
223 1 57.5852051 40.9355012 20.7796002
224 1 0.167006 54.674099 49.7699013
225 1 50.0312004 21.6471005 1.15596
226 2 61.9172974 77.8960038 52.2529984
227 2 40.6981011 59.8097992 18.7626
228 1 71.3943024 -4.30582 78.4375
229 1 35.0446014 8.9341202 21.7558995
230 1 29.0748997 29.5286007 70.5196991
231 2 31.2080994 53.5460015 13.875
232 1 67.3899002 4.24578 14.6988001
233 1 43.2999001 14.3332005 43.0990982
234 1 27.2267017 5.65871 1.37918
235 2 1.0571899 39.0699997 29.0496006
236 1 1.33935 53.2010002 -2.60862
237 1 -1.07225 23.1937008 67.2630005
238 1 72.9417038 42.1105995 28.4993992
239 1 4.6297403 20.4328995 24.5956002
240 1 68.8267975 42.4028015 -2.01197
241 1 56.0271988 18.4929009 70.7468033
242 1 29.6492996 25.4783993 29.5734024
243 2 -4.3765702 31.1639996 66.4079971
244 1 4.6114502 7.7593894 20.9624004
245 1 24.6208 11.2616997 66.8311997
246 1 62.8217011 49.6404 45.1015015
247 1 50.0037003 28.1280003 4.4131298
248 1 77.032898 30.9215012 6.4665799
249 1 52.4319 45.4964981 46.4124985
250 1 42.3028984 77.5568009 61.5788994
251 1 77.7166977 52.5508995 50.608799
252 1 77.2246018 59.8161011 -4.2290101
253 1 52.9611016 30.1676006 55.0015984
254 1 11.7159996 -4.3788099 15.6594
255 1 -1.55298 21.2355995 50.4202996
256 1 14.0433998 51.3474007 78.1845017
257 1 3.87477 -1.41136 11.2805004
258 1 37.4179001 25.969101 34.3172989
259 1 57.8335991 -0.842146 25.1215
260 1 41.6894989 50.9449006 0.634706
261 1 32.9850998 -5.7336402 14.9385004
262 1 16.2877998 11.1478005 43.0589981
263 1 31.8974 46.4995003 -1.78221
264 1 77.0569992 42.8846016 55.8538056
265 1 55.7011986 52.3121987 20.6620007
266 1 13.5839005 8.7835303 52.7849999
267 1 30.0072002 34.0264015 74.305603
268 1 75.1427994 40.7615013 -5.5662399
269 1 2.61675 60.2750015 59.148201
270 2 23.8514996 48.6039009 54.3933945
271 1 28.8911992 37.7016983 67.3336029
272 1 27.4213028 17.9554006 63.0734024
273 1 56.4908982 71.4604035 67.8236008
274 2 -1.3800401 72.1388016 8.3543701
275 1 44.118 45.767601 42.411499
276 1 42.6997986 78.5121002 9.4949904
277 1 16.7507992 69.3488007 66.6051026
278 1 5.6294999 13.8339005 -4.45751
279 1 6.0525699 52.8512002 62.6573944
280 1 59.1407051 43.3549004 63.0068016
281 1 1.90973 29.0159016 18.6499005
282 1 67.7705994 62.4990006 11.4050999
283 1 35.7234001 7.16991 49.0430985
284 1 62.5921974 -1.0391901 22.1033993
285 1 50.8238983 21.2702007 4.2894602
286 1 0.746144 40.0141983 73.6825028
287 2 10.6415997 63.4094963 54.990799
288 1 41.4101982 10.8424998 -2.6045001
289 2 2.3673799 70.112999 35.1949997
290 1 55.4598007 59.0898056 73.3223038
291 1 5.0350299 67.6420975 41.1627007
292 1 47.2540016 13.7791004 10.9555998
293 2 46.3991013 49.5177994 39.8591996
294 2 70.1526032 55.6382027 35.4095001
295 1 0.851123 70.2259979 48.7491989
296 1 56.5031052 5.6687799 1.16109
297 1 54.2686958 10.5431004 45.855301
298 2 51.2002983 14.0530996 51.3969002
299 1 65.875 51.7132988 12.9354
300 1 6.5748401 53.4269982 52.5070992
301 1 51.5759011 21.9337006 7.0420895
302 1 49.6473007 71.872902 67.6484986
303 1 31.7399006 55.7750969 49.1596985
304 1 15.4966002 34.287899 73.4039002
305 1 43.7225991 26.1816006 10.4960003
306 1 63.6259003 40.6636009 69.2303009
307 1 3.9049104 -1.21596 44.1703987
308 1 69.8569032 19.8451004 52.7313004
309 1 36.8274994 67.651001 41.264801
310 2 64.4171982 57.3921967 26.3241005
311 1 39.6418 72.4589005 76.5309983
312 1 50.6747017 15.6506005 73.1523972
313 1 -1.5151301 -2.87476 -1.19589
314 1 73.0764999 47.2639008 21.9095994
315 1 56.1809006 45.6613999 49.6787987
316 1 68.6489029 14.5908003 45.9878006
317 1 1.09302 35.1001015 54.6685944
318 1 39.5517998 32.0125999 8.4788904
319 1 1.5225901 76.9982986 7.7307801
320 1 -3.5587499 19.1977005 28.9440994
321 1 74.867302 56.7169991 68.927597
322 1 34.0561981 78.5147019 20.9888992
323 1 20.4316998 27.9204998 69.0632019
324 1 49.7602997 1.45757 71.1081009
325 1 23.3712006 77.9664002 12.3996
326 1 16.5881996 62.855999 10.7454996
327 1 52.5247994 29.3456001 57.7725945
328 2 38.5079994 64.1750031 54.8246994
329 1 26.9815998 43.8160019 64.296402
330 1 75.5355988 8.7290201 12.1472998
331 1 9.9698602 -1.56916 49.3490982
332 2 16.2215004 35.5136986 34.5914994
333 1 73.9707032 23.3754997 38.605999
334 1 26.1051006 38.3804016 16.6798001
335 1 26.922598 8.6306601 52.7910996
336 1 -2.84422 28.9463998 71.6362
337 1 65.2777023 14.9229012 18.6324005
338 1 0.502056 3.4375701 63.6446991
339 1 28.7518025 15.0117998 47.8373986
340 1 30.1627007 46.7164994 76.0828018
341 1 36.1557007 11.7412997 66.2042008
342 1 7.5029106 73.0270996 50.0886002
343 1 16.5109997 47.1239014 58.539299
344 1 59.4110031 8.3481102 59.6763954
345 2 73.1391983 59.3111992 62.5793991
346 1 71.9445038 26.7416992 13.7942
347 1 76.5453034 72.7380982 37.2204018
348 1 5.9526 7.5134001 57.4164047
349 2 36.6405983 51.214901 76.7453995
350 1 65.4569016 69.8284989 72.6794968
351 1 55.1540985 43.1437988 -5.2467499
352 1 65.1139984 6.6015001 49.0424995
353 1 72.2429962 23.4036999 -5.6708102
354 1 43.6257019 21.8080006 56.2113991
355 1 49.9147988 72.5569 13.6886988
356 1 4.9477602 0.109446 57.3758965
357 1 10.3626003 77.1344986 52.1618004
358 1 22.9113998 8.50978 63.8106003
359 1 75.1485977 5.53969 32.5096016
360 1 11.4537001 -4.98175 34.1674004
361 2 75.384697 47.2122994 12.3415003
362 1 16.9598008 12.5860005 64.6611023
363 1 19.4067993 30.1268997 63.0409012
364 1 9.6841803 48.7905007 32.7198982
365 2 66.1967011 12.0412998 19.8218003
366 1 25.6429997 37.9618988 13.9374
367 1 32.4202996 75.5164032 3.84912
368 1 63.7697983 52.3353996 29.4763012
369 1 38.9147988 38.082901 69.8152008
370 1 11.3438997 -3.6863001 24.6149998
371 1 49.1501007 10.8261996 48.3534012
372 1 40.1544991 56.4570999 28.8925992
373 2 31.9081994 57.5838013 29.1749001
374 1 11.1849003 44.5208016 34.3086014
375 1 25.1236 49.714901 23.9027004
376 1 68.5030976 0.742495 4.2613506
377 1 50.7616997 26.5573006 61.5647049
378 1 41.9277 15.7538996 47.601799
379 1 56.8722 49.6847992 36.9155006
380 1 51.0648994 18.3262997 33.6773987
381 1 42.5881005 42.3735008 71.4092026
382 1 -0.604483 21.8724996 -4.9737106
383 1 28.3106022 27.9676992 39.6015015
384 2 49.786499 25.4472008 11.0031004
385 1 48.6827011 -3.84002 7.9948802
386 1 48.4856987 43.2641983 51.7290001
387 1 22.3941994 5.4373498 78.3384018
388 1 52.3911018 61.5051003 38.7733994
389 1 24.1823006 -3.0329299 28.2244988
390 1 15.1521998 29.9337978 31.9235992
391 1 54.5037003 69.9878006 15.0508003
392 1 76.0029984 65.6733017 48.1459999
393 1 24.5512009 -2.39129 67.5326996
394 1 50.3459015 2.71308 65.9383012
395 2 12.5623999 25.0317993 45.9412994
396 1 -1.0495 78.3131027 71.9660034
397 1 10.8843002 73.5596009 15.2449999
398 1 36.8728982 -6.02175 74.9195024
399 1 58.2528 16.1042995 35.2627983
400 2 26.1504002 40.0934982 -5.2253199
401 1 33.6982994 67.9988022 65.3199997
402 1 -1.10926 -3.95957 12.6085997
403 1 38.3237 13.0016003 48.4383011
404 1 36.6932984 42.8067017 44.5131989
405 1 29.1590023 64.2117005 60.2598992
406 1 37.1232987 8.5636997 23.6734009
407 1 62.4533005 45.6296005 65.631897
408 1 -3.1220601 70.1929016 6.77317
409 1 72.9826966 57.3809967 7.4306999
410 1 27.1028004 3.86597 33.6822014
411 2 15.0581999 21.5471001 61.4849015
412 2 68.6130982 12.7475996 62.7776947
413 1 71.2081986 12.9011002 5.03511
414 1 56.7271996 64.8143006 22.0615006
415 1 -0.0806032 31.4104996 5.5230198
416 1 61.3504944 31.2088986 56.3928948
417 2 31.210598 35.9235002 49.2074013
418 1 77.6495972 50.8923988 68.6501007
419 1 5.7655301 62.3667984 61.5646019
420 1 -1.2500301 48.6086006 55.3420982
421 1 76.151001 6.90234 68.5821991
422 2 41.4239998 8.6196604 47.3908997
423 1 49.5886002 68.4294968 46.5163002
424 1 4.2260599 27.3304005 30.6675015
425 1 2.3584099 57.5667 8.7749796
426 1 62.9982034 5.4907699 50.3630982
427 1 64.4541016 63.3564987 69.0754013
428 1 10.3125 76.3291016 2.5047601
429 1 6.1918998 45.0079002 60.5966034
430 1 50.2192001 73.4436035 7.8687506
431 1 50.3945999 62.2658997 18.9109002
432 1 60.7123986 10.9706002 63.6814003
433 2 42.0115013 56.8372994 73.2398987
434 1 49.5317002 73.8100968 65.3000031
435 1 19.4188004 61.3769989 55.1636047
436 1 19.6243 41.733799 14.9548988
437 2 22.8218994 -1.2745 16.0438995
438 2 77.2897034 22.6075993 61.8246994
439 2 62.6558991 11.3660002 25.3640003
440 2 48.3950997 73.3516998 72.6648026
441 1 4.4734802 35.1208992 30.0489979
442 1 54.1926003 55.2468987 30.4088001
443 1 22.243 65.7727967 76.7443009
444 1 67.0134964 3.18312 28.5360985
445 1 54.5150032 62.233799 40.5337982
446 1 21.2089005 52.723301 -1.2143
447 1 32.1139984 50.9221992 54.4942017
448 1 -0.452728 75.2348023 8.5844403
449 1 25.7329998 74.2347031 16.5272007
450 1 55.0347023 -1.42271 16.6362
451 1 -0.115926 55.2080002 34.7515984
452 1 28.6215 13.0416002 63.1259003
453 1 31.7949028 65.0018997 55.6721039
454 1 14.0347996 16.5265007 35.3053017
455 1 78.4817963 35.2728996 6.38201
456 1 12.3262997 28.0431995 73.6866989
457 1 45.3203011 18.6259003 52.9101982
458 1 38.4687004 21.3131008 39.8279
459 1 -2.90712 46.8591004 2.8378501
460 1 -3.84425 -0.377282 57.4818993
461 1 39.8468018 30.6215 68.0242996
462 1 10.6035004 22.0695992 20.9188004
463 1 11.2238999 59.1916046 51.9459
464 1 2.04951 62.6822968 35.990799
465 1 15.7917996 34.3391991 40.3861008
466 1 70.9758988 15.1878004 72.9853974
467 1 -1.5137301 66.211998 42.7947998
468 1 71.2293015 66.0250015 72.8264008
469 1 47.0593987 16.8733006 54.6954003
470 1 34.7380982 43.0598984 -0.350669
471 1 36.1460991 42.1194 59.716095
472 1 33.6579018 18.922701 16.9256992
473 2 49.3035011 4.4526601 63.1334992
474 1 56.4675026 3.4516201 42.3426018
475 1 45.0783997 -5.3847599 73.9655992
476 1 75.5901032 9.6080799 64.0233002
477 1 27.6012001 75.828003 49.3860016
478 1 19.4494992 55.9233018 1.72205
479 1 17.2154999 23.2150993 76.9685974
480 1 72.7979965 24.7513008 46.9692994
481 1 55.8863984 39.2280007 72.2071991
482 1 55.1977005 35.4029007 17.3488007
483 1 51.6296997 72.9501038 23.0373993
484 1 14.5667 19.2266007 28.2488003
485 1 24.1788998 47.8325005 -5.57794
486 1 68.7751999 77.7779007 35.8372994
487 1 38.9925004 52.3693009 70.538002
488 1 29.6316986 70.8263016 38.0946999
489 1 19.8549004 51.9319992 46.6278992
490 2 66.4309006 19.9836998 -5.3413501
491 1 44.5003014 4.2750702 -0.248974
492 1 4.8249302 54.8861008 38.8660012
493 1 29.7896996 75.4570008 27.7975998
494 1 11.5607996 58.1581001 37.7317009
495 1 76.3658981 66.825203 77.9144974
496 1 17.6550007 40.5895005 49.4641991
497 1 18.5634995 56.6884995 18.9368
498 1 23.4330006 53.7597008 68.811203
499 1 1.48312 15.4048996 1.21248
500 1 3.6928599 20.1727009 6.5635801
501 2 75.1059036 7.4808202 75.2177963
502 2 65.5531998 -2.9728 18.4207001
503 1 51.3330994 1.5328701 50.3147011
504 1 62.1217995 -1.72701 44.2947006
505 1 10.7075005 -2.6534 60.200901
506 1 10.1675997 20.1336994 45.2265015
507 1 8.75704 22.1860008 60.1445007
508 1 1.19996 69.1212006 32.2206001
509 1 70.2901001 33.1529007 73.5866013
510 1 -6.09161 -2.74104 -2.23648
511 1 34.1841011 10.1618004 10.9089012
512 1 8.5083399 44.8890992 70.0992966
513 1 40.489399 25.7189999 -5.4298201
514 1 28.5536995 1.16396 1.7354701
515 1 59.0622025 59.2206001 5.6953602
516 1 38.5122986 6.41994 15.3052988
517 1 57.7725945 -1.64544 46.3457985
518 1 2.57002 15.4815998 65.7161026
519 1 24.1077995 38.4255982 38.6207009
520 1 45.8754006 1.97332 69.3967972
521 1 31.7066021 14.0733995 54.6072006
522 1 17.2530995 37.8117981 69.8751984
523 1 69.946602 14.2715998 -6.07339
524 1 23.4403 -0.353937 55.2270012
525 1 9.6610699 66.5804978 50.9285012
526 1 60.546299 27.5375996 59.712101
527 1 58.853199 -2.79577 64.0314026
528 1 52.0242004 9.5947905 63.3716049
529 1 15.2642002 66.6076966 34.1772003
530 1 10.6964998 51.6635018 56.7713013
531 1 71.0828018 52.3039017 9.0027704
532 1 53.0130997 40.662201 46.3219986
533 1 70.1836014 30.6569977 60.0079994
534 1 25.4431 -4.3107 20.6583996
535 1 69.4421997 58.0008011 12.5463
536 1 45.7738991 57.283905 68.3602982
537 1 74.2181015 7.1366401 62.0405998
538 1 39.8176003 -4.0553999 57.2756996
539 1 -0.419233 9.8680296 24.0506992
540 1 14.912099 43.4482994 57.9387016
541 1 10.6386996 3.8432802 4.71278
542 1 64.5605011 61.2458 67.4588013
543 1 45.0390015 -1.20679 32.1456986
544 2 -2.92883 70.572197 62.1839981
545 1 16.1123009 24.2203007 54.6492043
546 1 75.4103012 14.0195999 67.9726028
547 1 48.3681984 15.7690001 50.9458008
548 1 66.799202 17.6014996 75.0523987
549 1 33.5116005 40.6959 19.0492992
550 1 47.5027008 38.4149017 62.6649971
551 1 1.62457 48.7015991 30.0631008
552 2 -1.78386 77.0018005 39.2052994
553 2 77.1391983 6.0659399 29.8892994
554 1 60.7709008 3.3420899 50.9043008
555 1 21.5447006 24.8829994 31.3645001
556 1 34.4738007 72.2520981 -3.3560801
557 1 9.7289496 52.0647011 21.4675007
558 1 19.5440998 61.394001 51.6501999
559 1 72.1762009 2.36797 59.6394997
560 1 50.5713997 67.3144989 32.5418015
561 1 56.4029007 23.7360001 40.6114998
562 1 53.0359001 16.3083 33.4390984
563 2 20.9155006 9.7715302 73.4564972
564 1 32.9011002 78.0412979 49.9772988
565 1 -1.41914 65.6091995 33.8614998
566 1 27.8244 70.4336014 48.6380005
567 1 42.6934014 -0.385671 55.0382957
568 1 -2.11712 48.2492981 13.3367996
569 1 41.0371017 31.5923004 6.1674299
570 1 19.5450993 77.0718994 56.5704003
571 1 14.3922005 19.1063995 17.5725003
572 2 38.6750984 -6.0915294 69.3426972
573 1 18.2651005 44.0271988 15.8883
574 1 3.6049199 5.61164 43.2508011
575 1 34.9280014 16.5767994 68.5076981
576 1 8.8174801 26.7896996 14.6280003
577 1 77.0335007 29.3997994 11.1396999
578 1 76.6392975 9.0146198 18.5405007
579 1 43.9339982 18.8605004 16.6303005
580 1 27.9932004 44.8833008 67.7482987
581 1 -5.9460306 40.891201 20.4838009
582 1 46.9785004 29.2726021 59.7723961
583 1 -4.37708 62.0278015 9.0865698
584 1 68.0306015 56.1905975 56.7377968
585 2 -4.91926 -3.30284 2.7556501
586 1 -5.0798402 45.0595017 67.9328004
587 1 17.9997006 55.3300018 32.4536019
588 1 13.4146996 48.0220985 28.4834023
589 1 48.5374985 54.5695992 75.0733032
590 1 41.0923004 42.7764015 63.2734032
591 1 74.3106003 77.1720963 14.7538996
592 1 26.5548001 33.5186005 54.8396988
593 1 60.2196999 56.2683983 -1.7241401
594 1 2.1918399 6.2890701 74.354599
595 1 54.4735985 51.4536019 14.6654988
596 1 51.8786012 32.9936982 2.07073
597 1 41.3655014 17.8700008 34.7467995
598 1 37.9824982 -3.08213 -0.307389
599 2 30.3757992 16.2513008 13.7989998
600 1 42.794899 49.3997994 17.0072002
601 1 14.8501998 45.9421006 39.9235002
602 1 20.8155003 50.0583 14.9224998
603 1 67.1501007 72.4366989 58.6382027
604 1 0.0470952 37.0475006 23.8444996
605 1 65.2507019 11.5732003 -4.8260799
606 1 8.0214596 21.2271004 72.0214996
607 1 5.5630498 61.3553009 33.2019997
608 1 59.0112 28.8840008 9.8682004
609 1 70.1244965 31.2484989 15.707901
610 1 20.1277008 48.9267998 -3.11675
611 1 26.5800991 54.7938996 29.7360993
612 1 40.2901993 1.96384 9.6096001
613 1 72.2528 28.0513001 -1.87277
614 2 72.1893005 3.4918301 31.6639996
615 1 33.2132988 30.844 38.7989006
616 1 6.80406 38.724701 70.7939987
617 2 55.9358026 60.2292977 5.6251002
618 1 56.2947006 39.7411995 8.6315899
619 1 11.4912997 74.6464997 68.1023026
620 1 24.4845009 10.7261 63.1026993
621 1 16.0811005 17.8668996 47.4124985
622 1 13.3626003 40.0323982 12.0122004
623 1 71.0466995 5.5674601 56.2588043
624 1 5.2030501 42.6589012 64.9216004
625 1 31.2481976 13.0108004 32.375
626 1 -4.9073706 8.6854296 72.9027024
627 1 20.4193993 26.4713993 47.5918999
628 1 30.0164986 43.2536011 47.5298004
629 2 37.5979004 4.84482 63.6749001
630 1 26.8756008 38.8560982 19.0799999
631 1 14.3669005 40.0238991 6.4512501
632 1 23.7514 73.646698 4.12253
633 1 37.0934982 -1.21197 41.1377983
634 1 17.2320004 0.245144 50.6586991
635 1 -3.6559301 62.1383057 21.2894001
636 1 35.7397003 -3.96081 4.3668199
637 1 16.4862004 5.7645998 53.9084016
638 1 26.7345009 41.8566018 40.2190018
639 1 30.4308987 -4.6257301 11.2202997
640 2 2.7205301 0.255445 32.2313004
641 1 71.6734009 13.2643995 17.6035996
642 1 3.3231299 51.0488014 77.1672974
643 1 12.0480003 15.3350001 27.2091999
644 1 39.0262985 10.7125998 66.958397
645 1 73.8348999 3.6440201 42.9805984
646 1 40.0313988 28.5765991 45.9193002
647 1 29.3355999 54.4825974 -0.0187093
648 2 -0.675358 70.9794998 1.95649
649 1 14.4119997 74.5199967 62.9961014
650 1 72.4265976 55.8540994 50.9766998
651 1 61.8688012 65.4429016 62.4161987
652 1 13.4217997 8.0172195 14.5579005
653 1 46.6997986 15.4674988 46.1012993
654 1 18.3654995 45.8354988 20.3003006
655 1 35.1713982 10.9167996 70.8541032
656 1 42.9235992 -2.8380101 47.0093994
657 2 7.48733 24.1623001 44.2436981
658 2 63.4606018 64.9684982 12.8871002
659 1 14.2418003 32.9790002 38.5775986
660 1 5.01717 46.3151016 27.9687004
661 1 -3.32603 57.7983055 23.3985005
662 1 47.3450012 14.3851004 16.8211994
663 1 54.0085945 36.1501007 41.6638985
664 1 23.8059998 5.4157701 67.5059967
665 1 68.3470001 35.8156014 55.9818994
666 2 52.1772003 30.4365978 49.9258004
667 1 78.4900971 -5.6081701 78.0958023
668 2 3.1714399 12.2089005 62.7439995
669 1 73.9858018 31.2702007 37.1693993
670 1 32.0307999 51.0993004 57.6805001
671 1 68.370903 74.6889038 73.3464966
672 1 60.5569 41.1430016 0.0153695
673 1 55.952095 70.6274033 7.4489002
674 1 42.7999001 24.3551998 21.3523007
675 1 4.3669901 26.2607994 11.9476004
676 1 41.111599 -3.4867401 20.3792
677 1 39.8474008 18.5727997 26.2838993
678 1 28.2308998 45.9459992 63.1561012
679 1 32.3586006 -3.0810599 74.8752976
680 2 27.9288006 11.2706003 48.0537987
681 2 1.99596 73.8242035 6.59862
682 1 62.480999 56.9870034 71.0512009
683 1 67.3304978 72.0764008 8.3254204
684 1 65.544899 16.4165001 49.9618988
685 1 28.2593975 57.2532044 62.050499
686 1 29.6072998 64.5174027 11.0559998
687 1 -6.0113401 27.8320999 25.0210991
688 1 28.2919998 60.4838982 34.1239014
689 1 36.8998986 36.0325012 7.7033506
690 1 4.6939001 50.5293007 7.4289298
691 1 71.3777008 18.9841996 63.3832016
692 1 67.2594986 31.2835007 49.5531998
693 1 27.1917 19.1599007 31.4552994
694 1 34.7447014 6.63028 14.8879004
695 1 37.3272019 73.0839005 13.0941
696 1 14.7765999 36.6929016 76.7702027
697 1 76.5011978 76.4825974 41.8599014
698 1 55.0485001 25.8381005 30.5248986
699 1 -1.0285701 72.4842987 26.1917992
700 1 -2.53706 34.3945007 70.1356964
701 1 15.8837996 7.84861 21.1247997
702 1 18.1749001 -5.4710398 24.3202
703 1 49.4370995 50.8317986 54.030201
704 1 11.0326004 -3.51474 8.5333205
705 1 64.004303 42.9000016 54.7985993
706 1 36.8092995 27.1639004 25.6832009
707 1 -3.7809501 53.823803 9.0071697
708 2 78.1052017 68.2288971 58.1281014
709 1 43.2622986 35.7708016 24.8348999
710 1 36.1043015 61.5812989 61.3398018
711 1 -0.487907 8.0372 39.3404999
712 1 50.1358986 53.8590966 -4.4712301
713 1 20.6616001 9.1164503 49.8091011
714 1 45.6545983 62.547699 25.0704994
715 1 53.7261009 6.88727 8.6950798
716 1 5.7740798 57.5390015 62.7000008
717 1 50.740799 -0.887898 62.8662988
718 1 4.0510101 20.8948994 -4.3628898
719 1 64.6079026 18.5242005 6.3665199
720 1 3.0404899 49.8479996 60.8915024
721 1 58.2174034 70.1709976 46.9309998
722 1 44.0147018 19.3668995 56.9844018
723 1 10.5504999 33.9289018 -4.97474
724 1 73.2608032 6.5383601 7.36341
725 1 57.1460991 59.1785965 32.862301
726 1 22.9836006 36.9608994 49.9807014
727 1 31.6051007 56.1513977 26.1660004
728 1 41.2364998 66.5505982 50.3813019
729 1 -1.7149101 38.7136002 65.2171021
730 1 36.0942993 62.6137009 52.5494995
731 1 27.7264996 41.7750016 77.3012009
732 1 41.9706002 -4.9358802 33.5126992
733 1 9.5408697 42.5369988 53.2090988
734 2 18.3148995 54.7662964 46.2377014
735 1 50.7811013 57.932396 42.0439987
736 1 41.6599007 31.1496983 46.2593994
737 1 28.0763016 3.82847 22.4615002
738 1 9.3609896 67.1175995 -4.2238498
739 1 -5.07267 77.7008972 -4.36478
740 1 34.167099 4.23841 61.962597
741 2 -2.4092 -4.7947107 35.6701012
742 1 -1.63239 -3.13237 15.2816
743 2 -4.5088201 36.0089989 34.0348015
744 1 42.1217995 22.3005009 9.7613697
745 1 17.8589994 33.4785996 27.3563004
746 1 31.7868996 5.0968199 60.7568016
747 1 57.4062004 67.0774994 27.0342999
748 2 42.6217003 56.479599 14.2880001
749 1 25.0974999 47.6982003 44.7100983
750 1 40.8675004 14.7018004 1.5660302
751 1 26.7810993 35.7932015 56.4757004
752 1 21.9983998 4.5890198 -3.8518
753 1 26.8547002 16.3822994 39.6526985
754 1 53.7234993 40.7456017 56.5107956
755 1 39.0589981 36.5607987 41.3585014
756 1 16.3540001 45.1941986 7.8414106
757 1 17.0158997 77.5270005 7.6872702
758 1 19.9447994 -4.4877901 35.3098984
759 2 74.5506974 63.5665016 57.8763008
760 1 26.4923992 16.9505998 60.471901
761 1 47.6492005 35.6259003 14.2538004
762 1 66.281601 75.5706024 31.6828995
763 1 22.8276997 41.0098991 45.8557014
764 1 -1.15659 5.6405101 49.5051003
765 1 60.524498 11.3344002 76.7611008
766 1 -1.69484 50.0684013 15.6211005
767 2 30.0 7.6407094 6.35535
768 1 32.6127014 1.85565 39.1082001
769 1 65.7218018 46.6641999 10.8956004
770 1 24.9311008 33.7527008 56.9371986
771 1 48.0589981 19.7327996 -3.6320701
772 1 -2.3001101 71.0917969 -4.86052
773 1 62.3737984 20.0485992 59.5436974