units           metal
boundary        p p p
atom_style      atomic
atom_modify     map array sort 10000 2.0
read_data         T${T}.dat
read_data         T300.dat
  orthogonal box = (-6.02527 -6.02527 -6.02527) to (78.4253 78.4253 78.4253)
  3 by 4 by 7 MPI processor grid
  reading atoms ...
  32000 atoms
pair_style      eam/fs
pair_coeff      * * Al90Sm10_MendelevM_2014.eam.fs  Al Sm
mass            1  26.98	#Al
mass            2  150.36	#Sm
neighbor            2.0 bin
neigh_modify    delay 5
timestep 0.002
thermo 1000

fix             1 all npt temp ${T} ${T} 0.02 iso 0 0 0.2
fix             1 all npt temp 300 ${T} 0.02 iso 0 0 0.2
fix             1 all npt temp 300 300 0.02 iso 0 0 0.2
thermo_style custom step temp pe etotal press vol lx ly lz density etotal enthalpy
run 100000
Neighbor list info ...
  1 neighbor list requests
  update every 1 steps, delay 5 steps, check yes
  max neighbors/atom: 2000, page size: 100000
  master list distance cutoff = 10
  ghost atom cutoff = 10
  binsize = 5 -> bins = 17 17 17
Memory usage per processor = 2.88638 Mbytes
Step Temp PotEng TotEng Press Volume Lx Ly Lz Density TotEng Enthalpy 
       0            0   -129749.43   -129749.43   -2732.0852    602292.28     84.45054     84.45054     84.45054    3.4739336   -129749.43   -130776.48 
    1000    300.73426   -129759.09    -128515.2    77.840658    601799.35    84.427495    84.427495    84.427495     3.476779    -128515.2   -128485.96 
    2000    300.14828   -129750.01   -128508.54   -6.0063733    601865.58    84.430592    84.430592    84.430592    3.4763964   -128508.54   -128510.79 
    3000    299.13933   -129749.46   -128512.16   -308.82438    602107.37    84.441897    84.441897    84.441897    3.4750004   -128512.16   -128628.22 
    4000    300.97315   -129743.36   -128498.48     433.9484    601668.56    84.421379    84.421379    84.421379    3.4775348   -128498.48   -128335.52 
    5000    301.43072   -129757.34   -128510.57    30.597808    601951.65    84.434617    84.434617    84.434617    3.4758994   -128510.57   -128499.07 
    6000     300.1907   -129751.27   -128509.63   -146.99576    602006.04     84.43716     84.43716     84.43716    3.4755854   -128509.63   -128564.86 
    7000     298.6826   -129762.66   -128527.25    88.007108    601818.69      84.4284      84.4284      84.4284    3.4766673   -128527.25   -128494.19 
    8000    298.46532   -129742.37   -128507.86   -384.46828    602220.62    84.447191    84.447191    84.447191     3.474347   -128507.86   -128652.37 
    9000    301.18117   -129750.62   -128504.88    42.195954    601875.23    84.431043    84.431043    84.431043    3.4763407   -128504.88   -128489.02 
   10000    300.11476   -129740.39   -128499.05    92.155663    601918.46    84.433065    84.433065    84.433065     3.476091   -128499.05   -128464.43 
   11000    301.31602   -129753.01    -128506.7   -511.20104    602207.91    84.446597    84.446597    84.446597    3.4744203    -128506.7   -128698.85 
   12000    300.90868   -129745.05   -128500.43    31.790443    601907.12    84.432534    84.432534    84.432534    3.4761566   -128500.43   -128488.49 
   13000    299.54596   -129742.93   -128503.94    28.361632    601954.82    84.434765    84.434765    84.434765    3.4758811   -128503.94   -128493.29 
   14000    302.92279   -129746.64   -128493.69   -215.48489    602114.59    84.442234    84.442234    84.442234    3.4749588   -128493.69   -128574.67 
   15000    299.91138   -129740.39    -128499.9    215.95393     601781.8    84.426674    84.426674    84.426674    3.4768805    -128499.9   -128418.78 
   16000    300.67436   -129756.97   -128513.32   -118.17588    602016.03    84.437627    84.437627    84.437627    3.4755277   -128513.32   -128557.73 
   17000    301.22891   -129743.09   -128497.15   -1.6951663    601977.62    84.435831    84.435831    84.435831    3.4757494   -128497.15   -128497.79 
   18000    299.66124   -129756.74   -128517.28    9.5856502    601826.58    84.428769    84.428769    84.428769    3.4766217   -128517.28   -128513.68 
   19000    301.47867   -129744.71   -128497.74    124.07661    601883.69    84.431439    84.431439    84.431439    3.4762919   -128497.74   -128451.13 
   20000    301.88166   -129746.64      -128498     -244.041     602177.3    84.445166    84.445166    84.445166    3.4745969      -128498   -128589.72 
   21000    297.47407    -129745.8   -128515.39   -115.91218    602097.73    84.441447    84.441447    84.441447    3.4750561   -128515.39   -128558.95 
   22000     300.5019   -129747.59   -128504.65    271.06512    601729.38    84.424223    84.424223    84.424223    3.4771833   -128504.65   -128402.85 
   23000    302.24521   -129746.89   -128496.74    -491.8369    602328.75    84.452245    84.452245    84.452245    3.4737233   -128496.74   -128681.65 
   24000    300.43963   -129749.44   -128506.76   -145.33961    602022.35    84.437922    84.437922    84.437922    3.4754912   -128506.76   -128561.38 
   25000    298.97994    -129747.7   -128511.06    263.06966    601752.69    84.425313    84.425313    84.425313    3.4770486   -128511.06   -128412.25 
   26000    300.56663   -129752.74   -128509.54   -157.29912    601968.32    84.435396    84.435396    84.435396    3.4758031   -128509.54   -128568.64 
   27000    302.00916   -129755.47    -128506.3   -254.53402    602113.77    84.442196    84.442196    84.442196    3.4749635    -128506.3   -128601.95 
   28000    301.08076   -129746.57   -128501.24    495.69107    601577.37    84.417113    84.417113    84.417113     3.478062   -128501.24   -128315.12 
   29000    298.98629   -129743.33   -128506.66    -178.7088    602057.93    84.439585    84.439585    84.439585    3.4752858   -128506.66   -128573.82 
   30000    298.07167   -129741.15   -128508.27   -2.6807739    601960.09    84.435011    84.435011    84.435011    3.4758507   -128508.27   -128509.27 
   31000    299.69156   -129756.34   -128516.76    36.023233    601845.38    84.429648    84.429648    84.429648    3.4765131   -128516.76   -128503.23 
   32000    298.44755   -129758.66   -128524.23   -68.656018    601873.59    84.430967    84.430967    84.430967    3.4763502   -128524.23   -128550.02 
   33000    299.27655   -129745.98   -128508.11    213.35811     601790.2    84.427067    84.427067    84.427067    3.4768319   -128508.11   -128427.97 
   34000    302.23011   -129746.05   -128495.97   -72.568523    601993.14    84.436557    84.436557    84.436557    3.4756598   -128495.97   -128523.24 
   35000    300.28927    -129754.2   -128512.14    635.52855     601416.7    84.409597    84.409597    84.409597    3.4789911   -128512.14   -128273.58 
   36000    301.52719   -129754.05   -128506.88    13.818618    601869.05    84.430755    84.430755    84.430755    3.4763764   -128506.88   -128501.69 
   37000    297.40316    -129745.8   -128515.68    155.31893    601817.01    84.428321    84.428321    84.428321     3.476677   -128515.68   -128457.34 
   38000    298.40072   -129751.58   -128517.34    4.7461123    601897.84    84.432101    84.432101    84.432101    3.4762102   -128517.34   -128515.55 
   39000    301.35433   -129754.44   -128507.98   -46.619483    601934.06    84.433794    84.433794    84.433794     3.476001   -128507.98   -128525.49 
   40000    302.19385   -129747.58   -128497.65    98.651982    601832.89    84.429064    84.429064    84.429064    3.4765853   -128497.65   -128460.59 
   41000     299.9173   -129759.29   -128518.77    83.743543    601893.26    84.431886    84.431886    84.431886    3.4762366   -128518.77   -128487.31 
   42000    300.77198   -129750.99   -128506.94    -314.9966    602187.33    84.445635    84.445635    84.445635     3.474539   -128506.94   -128625.33 
   43000    299.41132   -129744.15   -128505.72    318.92034    601749.93    84.425184    84.425184    84.425184    3.4770646   -128505.72   -128385.94 
   44000    302.02047   -129738.86   -128489.64    29.291007    601924.06    84.433327    84.433327    84.433327    3.4760587   -128489.64   -128478.64 
   45000    301.33884   -129739.03   -128492.63   -119.51297     602044.2    84.438944    84.438944    84.438944    3.4753651   -128492.63   -128537.54 
   46000    298.98892   -129759.66   -128522.99    466.82062     601535.1    84.415136    84.415136    84.415136    3.4783064   -128522.99   -128347.72 
   47000    298.65956   -129750.78   -128515.47   -187.60416    601997.54    84.436762    84.436762    84.436762    3.4756344   -128515.47   -128585.96 
   48000    299.48855   -129758.42   -128519.68   -5.1097297    601936.91    84.433927    84.433927    84.433927    3.4759845   -128519.68    -128521.6 
   49000    300.23228   -129747.09   -128505.27    177.43958    601778.05    84.426499    84.426499    84.426499    3.4769021   -128505.27   -128438.62 
   50000    300.76209   -129749.88   -128505.87   -223.86488    602056.28    84.439508    84.439508    84.439508    3.4752953   -128505.87   -128589.99 
   51000    300.03605   -129753.28   -128512.28    214.68573    601812.89    84.428128    84.428128    84.428128    3.4767008   -128512.28   -128431.64 
   52000    299.31073   -129753.79   -128515.78   -83.260319    601876.22     84.43109     84.43109     84.43109     3.476335   -128515.78   -128547.06 
   53000    298.53074   -129746.33   -128511.55   -183.81692    602115.18    84.442262    84.442262    84.442262    3.4749554   -128511.55   -128580.63 
   54000    302.15931   -129737.74   -128487.95    436.08141    601755.81    84.425459    84.425459    84.425459    3.4770306   -128487.95   -128324.16 
   55000    298.81286   -129754.68   -128518.73   -154.71966    601995.62    84.436672    84.436672    84.436672    3.4756455   -128518.73   -128576.87 
   56000    303.44234   -129755.89   -128500.79   -88.606361    601953.71    84.434713    84.434713    84.434713    3.4758875   -128500.79   -128534.08 
   57000    297.96942   -129761.54   -128529.08    226.04471    601686.58    84.422221    84.422221    84.422221    3.4774307   -128529.08   -128444.19 
   58000    301.73781   -129750.76   -128502.71   -203.21979    602101.18    84.441607    84.441607    84.441607    3.4750362   -128502.71   -128579.08 
   59000     299.1657   -129748.99   -128511.58   -156.58712    602081.44    84.440685    84.440685    84.440685    3.4751501   -128511.58   -128570.43 
   60000    299.45386   -129757.17   -128518.57    229.92631    601712.49    84.423433    84.423433    84.423433    3.4772809   -128518.57   -128432.22 
   61000    300.91593   -129744.71   -128500.06   -319.37337    602152.84    84.444022    84.444022    84.444022    3.4747381   -128500.06   -128620.09 
   62000    299.43872   -129756.55   -128518.01    132.88148    601727.42    84.424131    84.424131    84.424131    3.4771947   -128518.01   -128468.11 
   63000    300.78543   -129754.72   -128510.61   -161.66122     602053.1     84.43936     84.43936     84.43936    3.4753137   -128510.61   -128571.36 
   64000    298.41462   -129753.42   -128519.12   -64.277922     601957.9    84.434909    84.434909    84.434909    3.4758633   -128519.12   -128543.27 
   65000    299.33185   -129750.17   -128512.07    242.04382    601730.76    84.424287    84.424287    84.424287    3.4771754   -128512.07   -128421.17 
   66000    299.44778   -129747.17    -128508.6   -356.33421    602137.88    84.443323    84.443323    84.443323    3.4748244    -128508.6   -128642.51 
   67000    298.62001   -129748.96   -128513.81     216.5091    601776.05    84.426406    84.426406    84.426406    3.4769137   -128513.81   -128432.49 
   68000    301.02927   -129751.88   -128506.76   -119.39311    602048.22    84.439132    84.439132    84.439132    3.4753418   -128506.76   -128551.63 
   69000     301.7726   -129745.23   -128497.04   -231.47914    602076.47    84.440452    84.440452    84.440452    3.4751788   -128497.04   -128584.02 
   70000    300.80701   -129743.18   -128498.99    191.73011     601814.5    84.428204    84.428204    84.428204    3.4766915   -128498.99   -128426.97 
   71000    300.69089   -129745.16   -128501.44   -243.90391    602106.54    84.441858    84.441858    84.441858    3.4750052   -128501.44   -128593.11 
   72000     299.9474    -129751.9   -128511.26    263.75087    601735.62    84.424515    84.424515    84.424515    3.4771473   -128511.26    -128412.2 
   73000    296.81502   -129754.25   -128526.56   -161.33012     602009.8    84.437336    84.437336    84.437336    3.4755636   -128526.56   -128587.18 
   74000    301.77761   -129751.43   -128503.22    221.21889    601791.68    84.427137    84.427137    84.427137    3.4768233   -128503.22   -128420.13 
   75000    302.39108   -129749.04   -128498.29    51.388469    601940.96    84.434117    84.434117    84.434117    3.4759611   -128498.29   -128478.98 
   76000    299.80146    -129757.4   -128517.36   -15.558706    601910.56    84.432696    84.432696    84.432696    3.4761367   -128517.36    -128523.2 
   77000    300.06837   -129749.44    -128508.3    57.654595    601832.25    84.429034    84.429034    84.429034     3.476589    -128508.3   -128486.64 
   78000    300.26223   -129753.52   -128511.58    165.98591    601767.56    84.426008    84.426008    84.426008    3.4769627   -128511.58   -128449.23 
   79000    300.79015   -129756.37   -128512.25    -450.6018    602214.17    84.446889    84.446889    84.446889    3.4743842   -128512.25   -128681.61 
   80000    299.58586   -129754.75    -128515.6    211.84119    601739.94    84.424717    84.424717    84.424717    3.4771223    -128515.6   -128436.04 
   81000    300.31648   -129749.22   -128507.05    75.080098    601898.24    84.432119    84.432119    84.432119    3.4762079   -128507.05   -128478.84 
   82000    300.54804   -129742.28   -128499.16   -99.240659    602079.33    84.440586    84.440586    84.440586    3.4751623   -128499.16   -128536.45 
   83000    300.71011   -129751.06   -128507.26       320.48    601723.72    84.423958    84.423958    84.423958     3.477216   -128507.26    -128386.9 
   84000     300.1448   -129756.48   -128515.03   -247.38471    601999.54    84.436856    84.436856    84.436856    3.4756229   -128515.03   -128607.98 
   85000    300.40884   -129748.45    -128505.9    114.28447     601842.6    84.429518    84.429518    84.429518    3.4765292    -128505.9   -128462.97 
   86000     300.1656    -129757.7   -128516.16    92.006202    601840.68    84.429428    84.429428    84.429428    3.4765403   -128516.16   -128481.59 
   87000    300.31705   -129744.48   -128502.31   -453.84355    602318.67    84.451774    84.451774    84.451774    3.4737814   -128502.31   -128672.92 
   88000    299.26052   -129750.68   -128512.88    109.58351    601877.88    84.431167    84.431167    84.431167    3.4763254   -128512.88   -128471.71 
   89000    299.13113   -129749.44   -128512.17    24.081452    601889.87    84.431728    84.431728    84.431728    3.4762562   -128512.17   -128503.12 
   90000    301.94317   -129747.32   -128498.42   -344.20189    602226.07    84.447445    84.447445    84.447445    3.4743155   -128498.42    -128627.8 
   91000    298.28326   -129738.51   -128504.75      42.8768    601948.84    84.434485    84.434485    84.434485    3.4759156   -128504.75   -128488.64 
   92000    301.85871   -129749.12   -128500.58     390.5589    601701.19    84.422904    84.422904    84.422904    3.4773463   -128500.58    -128353.9 
   93000    298.81437   -129738.86   -128502.91   -132.68586    602026.83    84.438132    84.438132    84.438132    3.4754653   -128502.91   -128552.76 
   94000    300.77855   -129749.59   -128505.51    221.06661    601866.15    84.430619    84.430619    84.430619    3.4763932   -128505.51   -128422.46 
   95000    297.71893   -129749.15   -128517.72   -262.35964    602075.36    84.440401    84.440401    84.440401    3.4751852   -128517.72   -128616.32 
   96000    297.78421   -129745.06   -128513.36    131.83485    601845.81    84.429668    84.429668    84.429668    3.4765106   -128513.36   -128463.84 
   97000    298.20893   -129743.28   -128509.83    98.223355    601868.11    84.430711    84.430711    84.430711    3.4763819   -128509.83   -128472.94 
   98000    301.70801   -129736.76   -128488.83     -979.628     602570.7    84.463551    84.463551    84.463551    3.4723284   -128488.83   -128857.27 
   99000    302.35792   -129743.11    -128492.5    222.27898    601878.51    84.431197    84.431197    84.431197    3.4763218    -128492.5      -128409 
  100000     300.9807   -129755.98   -128511.06    8.9934665    601857.16    84.430198    84.430198    84.430198    3.4764451   -128511.06   -128507.68 
Loop time of 275.72 on 84 procs for 100000 steps with 32000 atoms

Performance: 62.672 ns/day, 0.383 hours/ns, 362.687 timesteps/s
99.8% CPU use with 84 MPI tasks x 1 OpenMP threads

MPI task timing breakdown:
Section |  min time  |  avg time  |  max time  |%varavg| %total
---------------------------------------------------------------
Pair    | 218.22     | 225.39     | 234.2      |  23.8 | 81.75
Neigh   | 2.1272     | 2.2422     | 2.4021     |   4.3 |  0.81
Comm    | 19.728     | 26         | 34.634     |  63.8 |  9.43
Output  | 0.012795   | 0.013539   | 0.028313   |   1.4 |  0.00
Modify  | 15.463     | 18.8       | 21.491     |  36.2 |  6.82
Other   |            | 3.274      |            |       |  1.19

Nlocal:    380.952 ave 389 max 370 min
Histogram: 2 2 5 8 12 17 13 15 8 2
Nghost:    2992.65 ave 3023 max 2965 min
Histogram: 2 5 13 12 9 19 11 10 1 2
Neighs:    42276.7 ave 44324 max 39633 min
Histogram: 1 0 8 10 20 6 16 11 3 9

Total # of neighbors = 3551245
Ave neighs/atom = 110.976
Neighbor list builds = 1924
Dangerous builds = 0
unfix 1

reset_timestep 0

fix             1 all nvt temp ${T} ${T} 0.1
fix             1 all nvt temp 300 ${T} 0.1
fix             1 all nvt temp 300 300 0.1

shell "rm -f out*.colvars.*"
fix		2 all colvars configfile

thermo 10000

dump            1 all custom 50000 dump.${T} id type x y z
dump            1 all custom 50000 dump.300 id type x y z
dump_modify 1 sort id

run 10000000
colvars: Creating proxy instance
colvars: ----------------------------------------------------------------------
colvars: Initializing the collective variables module, version 2016-10-21.
colvars: Please cite Fiorin et al, Mol Phys 2013:
colvars:  http://dx.doi.org/10.1080/00268976.2013.813594
colvars: in any publication based on this calculation.
colvars: SMP parallelism is available.
colvars: Using LAMMPS interface, version 2016-10-05.
colvars: ----------------------------------------------------------------------
colvars: Reading new configuration from file "configfile":
colvars: # indexFile = "" [default]
colvars: # smp = on [default]
colvars: # analysis = off [default]
colvars: # colvarsTrajFrequency = 100
colvars: # colvarsRestartFrequency = 100000
colvars: # colvarsTrajAppend = off [default]
colvars: # scriptedColvarForces = off [default]
colvars: # scriptingAfterBiases = on [default]
colvars: ----------------------------------------------------------------------
colvars:   Initializing a new collective variable.
colvars:   # name = "dist"
colvars:   Initializing a new "rmsd" component.
colvars:     # componentCoeff = 1 [default]
colvars:     # componentExp = 1 [default]
colvars:     # period = 0 [default]
colvars:     # wrapAround = 0 [default]
colvars:     # scalable = on [default]
colvars:       Initializing atom group "atoms".
colvars:       # indexGroup = "" [default]
colvars:       # psfSegID =  [default]
colvars:       # atomsFile = "" [default]
colvars:       # dummyAtom = ( 0 , 0 , 0 ) [default]
colvars:       # enableForces = on [default]
colvars:       # centerReference = off [default]
colvars:       # rotateReference = off [default]
colvars:       # enableFitGradients = on [default]
colvars:       Atom group "atoms" defined, 20 atoms initialized: total mass = 20, total charge = 0.
colvars:     # refPositions = { ( 24.7399 , 4.42945 , -4.16031 ), ( 24.7823 , 9.29828 , -4.31863 ), ( 25.7563 , 6.55507 , -5.77382 ), ( 26.2257 , 7.01296 , -3.12185 ), ( 27.5389 , 4.84351 , -4.34427 ), ( 28.3409 , 7.44822 , -5.06386 ), ( 30.1709 , 9.30715 , -3.9089 ), ( 30.226 , 5.4915 , -1.75945 ), ( 30.3884 , 5.53542 , -4.73478 ), ( 32.2378 , 6.36793 , -0.382733 ), ( 32.3164 , 7.03585 , -3.19465 ), ( 33.3122 , 1.39363 , 0.500789 ), ( 34.4273 , 2.56411 , -1.85685 ), ( 33.564 , 4.17163 , 0.455008 ), ( 34.3834 , 5.48331 , -1.93444 ), ( 34.395 , 8.1272 , -1.43016 ), ( 34.6345 , 10.2369 , 0.0472727 ), ( 35.9104 , 12.6228 , -1.44037 ), ( 36.6762 , 11.598 , -4.8021 ), ( 36.9357 , 6.83714 , -1.69536 ) }
colvars:     Using reference positions from configuration file to calculate the variable.
colvars:     # refPositionsFile = "" [default]
colvars:     Enabling "centerReference" and "rotateReference", to minimize RMSD before calculating it as a variable: if this is not the desired behavior, disable them explicitly within the "atoms" block.
colvars:     This is a standard minimum RMSD, derivatives of the optimal rotation will not be computed as they cancel out in the gradients.
colvars:   All components initialized.
colvars:   # width = 0.01
colvars:   # lowerBoundary = 0
colvars:   # lowerWallConstant = 0 [default]
colvars:   # upperBoundary = 10
colvars:   # upperWallConstant = 0 [default]
colvars:   # hardLowerBoundary = off [default]
colvars:   # hardUpperBoundary = off [default]
colvars:   # expandBoundaries = on
colvars:   # timeStepFactor = 1 [default]
colvars:   # extendedLagrangian = off [default]
colvars:   # outputValue = on [default]
colvars:   # outputVelocity = off [default]
colvars:   # outputTotalForce = off [default]
colvars:   # outputAppliedForce = off [default]
colvars:   # subtractAppliedForce = off [default]
colvars: ----------------------------------------------------------------------
colvars: Collective variables initialized, 1 in total.
colvars: ----------------------------------------------------------------------
colvars:   Initializing a new "metadynamics" instance.
colvars:   # name = "meta"
colvars:   # colvars = { dist }
colvars:   # outputEnergy = on
colvars:   # hillWeight = 0.01
colvars:   # newHillFrequency = 1000
colvars:   # hillWidth = 20
colvars:   Half-widths of the Gaussian hills (sigma's):
colvars:   dist: 0.1
colvars:   # multipleReplicas = off [default]
colvars:   # useGrids = on [default]
colvars:   # gridsUpdateFrequency = 1000 [default]
colvars:   # rebinGrids = off [default]
colvars:   Metadynamics bias "meta": Will expand grids when the colvar "dist" approaches its boundaries.
colvars:   # keepHills = off [default]
colvars:   # writeFreeEnergyFile = on
colvars:   Option "saveFreeEnergyFile" is deprecated, please use "keepFreeEnergyFiles" instead.
colvars:   # keepFreeEnergyFiles = on [default]
colvars:   # writeHillsTrajectory = off [default]
colvars:   # wellTempered = on
colvars:   # biasTemperature = 1500
colvars:   Well-tempered metadynamics is used.
colvars:   The bias temperature is 1500.
colvars:   # ebMeta = off [default]
colvars: ----------------------------------------------------------------------
colvars: Collective variables biases initialized, 1 in total.
colvars: ----------------------------------------------------------------------
colvars: Collective variables module (re)initialized.
colvars: ----------------------------------------------------------------------
colvars: Re-initialized atom group dist:0/0. 20 atoms: total mass = 20.
colvars: The restart output state file will be "rest.colvars.state".
colvars: The final output state file will be "out.colvars.state".
colvars: Writing to colvar trajectory file "out.colvars.traj".
colvars: Re-initialized atom group dist:0/0. 20 atoms: total mass = 539.6.
colvars: Metadynamics bias "meta": new lower boundary for colvar "dist", at -0.28.
Memory usage per processor = 4.18937 Mbytes
Step Temp PotEng TotEng Press Volume Lx Ly Lz Density TotEng Enthalpy 
       0     300.9807   -129755.98   -128511.06    8.9934665    601857.16    84.430198    84.430198    84.430198    3.4764451   -128511.06   -128507.68 
colvars: Metadynamics bias "meta": new lower boundary for colvar "dist", at -0.29.
colvars: Metadynamics bias "meta": new lower boundary for colvar "dist", at -0.3.
colvars: Metadynamics bias "meta": new lower boundary for colvar "dist", at -0.31.
colvars: Metadynamics bias "meta": new lower boundary for colvar "dist", at -0.32.
colvars: Metadynamics bias "meta": new lower boundary for colvar "dist", at -0.33.
colvars: Metadynamics bias "meta": new lower boundary for colvar "dist", at -0.34.
colvars: Metadynamics bias "meta": new lower boundary for colvar "dist", at -0.35.
colvars: Metadynamics bias "meta": new lower boundary for colvar "dist", at -0.36.
colvars: Metadynamics bias "meta": new lower boundary for colvar "dist", at -0.37.
colvars: Metadynamics bias "meta": new lower boundary for colvar "dist", at -0.38.
colvars: Metadynamics bias "meta": new lower boundary for colvar "dist", at -0.39.
   10000    300.56444   -129749.64   -128506.45    179.23803    601857.16    84.430198    84.430198    84.430198    3.4764451   -128506.45   -128439.12 
   20000    299.82863   -129739.06   -128498.91     190.0161    601857.16    84.430198    84.430198    84.430198    3.4764451   -128498.91   -128427.53 
colvars: Metadynamics bias "meta": new lower boundary for colvar "dist", at -0.4.
colvars: Metadynamics bias "meta": new lower boundary for colvar "dist", at -0.41.
   30000    300.31073   -129746.68   -128504.53    126.57329    601857.16    84.430198    84.430198    84.430198    3.4764451   -128504.53   -128456.99 
   40000     301.3555   -129748.76    -128502.3    55.703158    601857.16    84.430198    84.430198    84.430198    3.4764451    -128502.3   -128481.37 
   50000    297.71218   -129741.26   -128509.87    136.82634    601857.16    84.430198    84.430198    84.430198    3.4764451   -128509.87   -128458.47 
   60000    301.15573   -129757.85   -128512.21    56.361626    601857.16    84.430198    84.430198    84.430198    3.4764451   -128512.21   -128491.04 
colvars: Metadynamics bias "meta": new lower boundary for colvar "dist", at -0.42.
colvars: Metadynamics bias "meta": new lower boundary for colvar "dist", at -0.43.
   70000    299.02454    -129744.9   -128508.07    82.427505    601857.16    84.430198    84.430198    84.430198    3.4764451   -128508.07   -128477.11 
   80000     300.1601   -129749.85   -128508.33    54.646146    601857.16    84.430198    84.430198    84.430198    3.4764451   -128508.33    -128487.8 
   90000    301.19827   -129747.58   -128501.76    123.93312    601857.16    84.430198    84.430198    84.430198    3.4764451   -128501.76   -128455.21 
colvars: Metadynamics bias "meta": new lower boundary for colvar "dist", at -0.44.
colvars: Synchronizing (emptying the buffer of) trajectory file "out.colvars.traj".
colvars: Writing the state file "rest.colvars.state".
  100000    299.71869   -129746.42   -128506.73   -2.1498822    601857.16    84.430198    84.430198    84.430198    3.4764451   -128506.73   -128507.54 
  110000    298.83826   -129741.35   -128505.29    187.86722    601857.16    84.430198    84.430198    84.430198    3.4764451   -128505.29   -128434.72 
  120000    300.70123    -129744.4   -128500.65    121.38655    601857.16    84.430198    84.430198    84.430198    3.4764451   -128500.65   -128455.05 
  130000    301.40147   -129752.04   -128505.38    134.73776    601857.16    84.430198    84.430198    84.430198    3.4764451   -128505.38   -128454.77 
  140000    300.80603   -129745.86   -128501.67    50.427858    601857.16    84.430198    84.430198    84.430198    3.4764451   -128501.67   -128482.73 
  150000    302.52986   -129742.52    -128491.2    312.75567    601857.16    84.430198    84.430198    84.430198    3.4764451    -128491.2   -128373.71 
  160000    300.52929   -129753.42   -128510.38     61.14746    601857.16    84.430198    84.430198    84.430198    3.4764451   -128510.38   -128487.41 
  170000    301.88043   -129743.87   -128495.23    172.98351    601857.16    84.430198    84.430198    84.430198    3.4764451   -128495.23   -128430.25 
  180000     298.3712   -129762.98   -128528.85   -1.6942873    601857.16    84.430198    84.430198    84.430198    3.4764451   -128528.85   -128529.49 
  190000    299.97996   -129744.37   -128503.59    191.04081    601857.16    84.430198    84.430198    84.430198    3.4764451   -128503.59   -128431.83 
colvars: Synchronizing (emptying the buffer of) trajectory file "out.colvars.traj".
colvars: Writing the state file "rest.colvars.state".
  200000     299.6103   -129746.02   -128506.77    147.39176    601857.16    84.430198    84.430198    84.430198    3.4764451   -128506.77    -128451.4 
  210000    301.42204   -129755.02   -128508.28   -28.892259    601857.16    84.430198    84.430198    84.430198    3.4764451   -128508.28   -128519.13 
  220000    300.23481   -129744.57   -128502.74    84.679304    601857.16    84.430198    84.430198    84.430198    3.4764451   -128502.74   -128470.93 
  230000    300.04763   -129759.22   -128518.17    97.628795    601857.16    84.430198    84.430198    84.430198    3.4764451   -128518.17   -128481.49 
  240000    302.37986   -129751.46   -128500.76    139.20314    601857.16    84.430198    84.430198    84.430198    3.4764451   -128500.76   -128448.47 
  250000    300.70193   -129750.87   -128507.11    117.76688    601857.16    84.430198    84.430198    84.430198    3.4764451   -128507.11   -128462.87 
  260000     300.1606    -129743.3   -128501.77    106.89526    601857.16    84.430198    84.430198    84.430198    3.4764451   -128501.77   -128461.62 
colvars: Metadynamics bias "meta": new lower boundary for colvar "dist", at -0.45.
  270000    301.28667   -129748.09   -128501.91    202.00122    601857.16    84.430198    84.430198    84.430198    3.4764451   -128501.91   -128426.03 
  280000     299.8658   -129741.67   -128501.36    153.88183    601857.16    84.430198    84.430198    84.430198    3.4764451   -128501.36   -128443.56 
  290000    301.48786   -129751.73   -128504.71    81.351298    601857.16    84.430198    84.430198    84.430198    3.4764451   -128504.71   -128474.15 
colvars: Synchronizing (emptying the buffer of) trajectory file "out.colvars.traj".
colvars: Writing the state file "rest.colvars.state".
  300000    300.35633   -129747.71   -128505.38     110.6486    601857.16    84.430198    84.430198    84.430198    3.4764451   -128505.38   -128463.81 
  310000    299.16996   -129751.44   -128514.02    32.903032    601857.16    84.430198    84.430198    84.430198    3.4764451   -128514.02   -128501.66 
  320000    302.49508   -129744.71   -128493.53    113.80504    601857.16    84.430198    84.430198    84.430198    3.4764451   -128493.53   -128450.78 
  330000    300.72046   -129752.16   -128508.32   -45.412341    601857.16    84.430198    84.430198    84.430198    3.4764451   -128508.32   -128525.38 
  340000    301.12029   -129746.45   -128500.96    168.32358    601857.16    84.430198    84.430198    84.430198    3.4764451   -128500.96   -128437.73 
  350000    301.57007   -129745.02   -128497.67     141.4099    601857.16    84.430198    84.430198    84.430198    3.4764451   -128497.67   -128444.55 
  360000      300.085   -129738.99   -128497.78    178.98465    601857.16    84.430198    84.430198    84.430198    3.4764451   -128497.78   -128430.54 
  370000    300.63742   -129745.37   -128501.88     147.7365    601857.16    84.430198    84.430198    84.430198    3.4764451   -128501.88   -128446.38 
  380000    301.25752   -129754.73   -128508.67    26.288062    601857.16    84.430198    84.430198    84.430198    3.4764451   -128508.67   -128498.79 
  390000    300.89672   -129752.59   -128508.02    23.962508    601857.16    84.430198    84.430198    84.430198    3.4764451   -128508.02   -128499.02 
colvars: Synchronizing (emptying the buffer of) trajectory file "out.colvars.traj".
colvars: Writing the state file "rest.colvars.state".
  400000      299.393   -129749.96   -128511.61    106.15315    601857.16    84.430198    84.430198    84.430198    3.4764451   -128511.61   -128471.74 
  410000    300.60856   -129747.02   -128503.64   -17.747348    601857.16    84.430198    84.430198    84.430198    3.4764451   -128503.64   -128510.31 
  420000    302.32539   -129752.32   -128501.85    98.243259    601857.16    84.430198    84.430198    84.430198    3.4764451   -128501.85   -128464.94 
  430000    299.41973   -129746.11   -128507.65    110.73916    601857.16    84.430198    84.430198    84.430198    3.4764451   -128507.65   -128466.05 
  440000    299.84299    -129753.3   -128513.09   0.80923796    601857.16    84.430198    84.430198    84.430198    3.4764451   -128513.09   -128512.79 
  450000    301.21409   -129745.65   -128499.77    143.01197    601857.16    84.430198    84.430198    84.430198    3.4764451   -128499.77   -128446.05 
  460000     299.8298   -129752.45   -128512.29    127.78725    601857.16    84.430198    84.430198    84.430198    3.4764451   -128512.29   -128464.29 
  470000    300.69124   -129744.84   -128501.12    70.607558    601857.16    84.430198    84.430198    84.430198    3.4764451   -128501.12   -128474.59 
  480000    300.08262   -129747.62   -128506.42     124.9719    601857.16    84.430198    84.430198    84.430198    3.4764451   -128506.42   -128459.48 
  490000    301.34581    -129747.4   -128500.98    8.5852038    601857.16    84.430198    84.430198    84.430198    3.4764451   -128500.98   -128497.75 
colvars: Synchronizing (emptying the buffer of) trajectory file "out.colvars.traj".
colvars: Writing the state file "rest.colvars.state".
  500000    298.89562    -129747.3   -128511.01    100.37272    601857.16    84.430198    84.430198    84.430198    3.4764451   -128511.01   -128473.31 
  510000     300.0258   -129744.37   -128503.41    147.97946    601857.16    84.430198    84.430198    84.430198    3.4764451   -128503.41   -128447.82 
  520000    300.95093   -129741.98   -128497.19    135.10963    601857.16    84.430198    84.430198    84.430198    3.4764451   -128497.19   -128446.44 
  530000    299.68442   -129745.26   -128505.71    67.080694    601857.16    84.430198    84.430198    84.430198    3.4764451   -128505.71   -128480.51 
  540000    300.40739   -129745.14    -128502.6    28.965932    601857.16    84.430198    84.430198    84.430198    3.4764451    -128502.6   -128491.72 
  550000    299.90642   -129741.19   -128500.72    201.79326    601857.16    84.430198    84.430198    84.430198    3.4764451   -128500.72   -128424.92 
  560000     299.9867   -129755.47   -128514.66    10.185146    601857.16    84.430198    84.430198    84.430198    3.4764451   -128514.66   -128510.84 
  570000    300.27901   -129743.56   -128501.55    145.06431    601857.16    84.430198    84.430198    84.430198    3.4764451   -128501.55   -128447.06 
  580000    300.38674   -129753.84   -128511.38    18.285598    601857.16    84.430198    84.430198    84.430198    3.4764451   -128511.38   -128504.51 
  590000    298.89305    -129750.8   -128514.52     104.0873    601857.16    84.430198    84.430198    84.430198    3.4764451   -128514.52   -128475.42 
colvars: Synchronizing (emptying the buffer of) trajectory file "out.colvars.traj".
colvars: Writing the state file "rest.colvars.state".
  600000    301.37051   -129754.83   -128508.31     77.72659    601857.16    84.430198    84.430198    84.430198    3.4764451   -128508.31   -128479.11 
  610000    301.07793   -129756.27   -128510.95    8.4527584    601857.16    84.430198    84.430198    84.430198    3.4764451   -128510.95   -128507.78 
  620000    300.32701   -129757.81    -128515.6     28.93452    601857.16    84.430198    84.430198    84.430198    3.4764451    -128515.6   -128504.73 
  630000    295.86311   -129740.54   -128516.79    83.155935    601857.16    84.430198    84.430198    84.430198    3.4764451   -128516.79   -128485.55 
  640000    300.55128    -129739.3   -128496.16    166.06345    601857.16    84.430198    84.430198    84.430198    3.4764451   -128496.16   -128433.78 
  650000    300.04109   -129743.99   -128502.96    104.47686    601857.16    84.430198    84.430198    84.430198    3.4764451   -128502.96   -128463.71 
  660000    299.82608   -129750.15   -128510.01    61.081065    601857.16    84.430198    84.430198    84.430198    3.4764451   -128510.01   -128487.07 
  670000    299.94455   -129741.76   -128501.13    218.15524    601857.16    84.430198    84.430198    84.430198    3.4764451   -128501.13   -128419.18 
  680000    298.86511   -129751.71   -128515.55   -16.333289    601857.16    84.430198    84.430198    84.430198    3.4764451   -128515.55   -128521.68 
  690000    301.66133    -129750.1   -128502.37    146.15434    601857.16    84.430198    84.430198    84.430198    3.4764451   -128502.37   -128447.47 
colvars: Synchronizing (emptying the buffer of) trajectory file "out.colvars.traj".
colvars: Writing the state file "rest.colvars.state".
  700000    299.86102    -129738.5   -128498.22    145.98044    601857.16    84.430198    84.430198    84.430198    3.4764451   -128498.22   -128443.38 
  710000    300.71581   -129750.74   -128506.92     87.53177    601857.16    84.430198    84.430198    84.430198    3.4764451   -128506.92   -128474.04 
  720000    298.66576   -129749.27   -128513.93    86.556758    601857.16    84.430198    84.430198    84.430198    3.4764451   -128513.93   -128481.41 
  730000    299.98678   -129744.54   -128503.74    122.75655    601857.16    84.430198    84.430198    84.430198    3.4764451   -128503.74   -128457.63 
  740000    301.40095   -129751.97   -128505.31    70.586449    601857.16    84.430198    84.430198    84.430198    3.4764451   -128505.31    -128478.8 
  750000    300.14349   -129747.85    -128506.4     89.42239    601857.16    84.430198    84.430198    84.430198    3.4764451    -128506.4   -128472.81 
  760000    299.69417   -129754.31   -128514.71    -8.019216    601857.16    84.430198    84.430198    84.430198    3.4764451   -128514.71   -128517.73 
  770000    299.44136   -129751.85    -128513.3    78.909742    601857.16    84.430198    84.430198    84.430198    3.4764451    -128513.3   -128483.66 
  780000    297.59844   -129749.21   -128518.29     56.97895    601857.16    84.430198    84.430198    84.430198    3.4764451   -128518.29   -128496.88 
  790000    299.42638   -129751.62   -128513.13    80.329937    601857.16    84.430198    84.430198    84.430198    3.4764451   -128513.13   -128482.96 
colvars: Synchronizing (emptying the buffer of) trajectory file "out.colvars.traj".
colvars: Writing the state file "rest.colvars.state".
  800000    301.00247   -129751.73   -128506.73    94.435791    601857.16    84.430198    84.430198    84.430198    3.4764451   -128506.73   -128471.25 
  810000    300.05377   -129746.58    -128505.5    131.71059    601857.16    84.430198    84.430198    84.430198    3.4764451    -128505.5   -128456.03 
  820000     301.3748   -129739.32   -128492.78    212.61313    601857.16    84.430198    84.430198    84.430198    3.4764451   -128492.78   -128412.91 
  830000    297.45763   -129745.16   -128514.82    163.68677    601857.16    84.430198    84.430198    84.430198    3.4764451   -128514.82   -128453.33 
  840000    301.02811    -129743.4   -128498.29    99.026268    601857.16    84.430198    84.430198    84.430198    3.4764451   -128498.29   -128461.09 
  850000    301.26591   -129737.47   -128491.38    262.26808    601857.16    84.430198    84.430198    84.430198    3.4764451   -128491.38   -128392.85 
  860000    299.01238   -129744.67   -128507.89    129.26533    601857.16    84.430198    84.430198    84.430198    3.4764451   -128507.89   -128459.34 
  870000    300.09829   -129745.31   -128504.04    89.067237    601857.16    84.430198    84.430198    84.430198    3.4764451   -128504.04   -128470.58 
  880000    299.87436   -129747.89   -128507.56     86.32055    601857.16    84.430198    84.430198    84.430198    3.4764451   -128507.56   -128475.13 
  890000    299.43851    -129756.9   -128518.37    64.420538    601857.16    84.430198    84.430198    84.430198    3.4764451   -128518.37   -128494.17 
colvars: Synchronizing (emptying the buffer of) trajectory file "out.colvars.traj".
colvars: Writing the state file "rest.colvars.state".
  900000    299.91224   -129748.02   -128507.53    69.131608    601857.16    84.430198    84.430198    84.430198    3.4764451   -128507.53   -128481.56 
  910000    300.37825   -129749.64   -128507.22    66.542306    601857.16    84.430198    84.430198    84.430198    3.4764451   -128507.22   -128482.22 
  920000    300.35035   -129754.34   -128512.03    96.014089    601857.16    84.430198    84.430198    84.430198    3.4764451   -128512.03   -128475.97 
  930000    298.46295   -129754.24   -128519.74    13.265067    601857.16    84.430198    84.430198    84.430198    3.4764451   -128519.74   -128514.76 
  940000    299.90297   -129750.56   -128510.11     128.2855    601857.16    84.430198    84.430198    84.430198    3.4764451   -128510.11   -128461.92 
  950000    302.46913   -129755.15   -128504.08    148.04627    601857.16    84.430198    84.430198    84.430198    3.4764451   -128504.08   -128448.46 
  960000    300.39905   -129737.58   -128495.08    128.71744    601857.16    84.430198    84.430198    84.430198    3.4764451   -128495.08   -128446.72 
  970000    298.63371    -129760.5    -128525.3   -106.26711    601857.16    84.430198    84.430198    84.430198    3.4764451    -128525.3   -128565.22 
  980000    302.11189   -129745.66   -128496.07    124.90226    601857.16    84.430198    84.430198    84.430198    3.4764451   -128496.07   -128449.15 
  990000    297.63693   -129751.14   -128520.06    49.069986    601857.16    84.430198    84.430198    84.430198    3.4764451   -128520.06   -128501.62 
colvars: Synchronizing (emptying the buffer of) trajectory file "out.colvars.traj".
colvars: Writing the state file "rest.colvars.state".
 1000000    298.82748   -129745.78   -128509.77    158.26218    601857.16    84.430198    84.430198    84.430198    3.4764451   -128509.77   -128450.32 
 1010000    299.23645   -129748.81   -128511.11    19.179765    601857.16    84.430198    84.430198    84.430198    3.4764451   -128511.11   -128503.91 
 1020000    298.95292   -129755.69   -128519.16   -19.134054    601857.16    84.430198    84.430198    84.430198    3.4764451   -128519.16   -128526.35 
 1030000    300.44928   -129746.36   -128503.64    84.470947    601857.16    84.430198    84.430198    84.430198    3.4764451   -128503.64   -128471.91 
 1040000    302.00038      -129750   -128500.86    50.446065    601857.16    84.430198    84.430198    84.430198    3.4764451   -128500.86   -128481.91 
 1050000    301.51865   -129749.23   -128502.09    36.607392    601857.16    84.430198    84.430198    84.430198    3.4764451   -128502.09   -128488.34 
 1060000    301.86431   -129744.13   -128495.56    56.674286    601857.16    84.430198    84.430198    84.430198    3.4764451   -128495.56   -128474.27 
 1070000    300.36423   -129742.04   -128499.67   -10.071612    601857.16    84.430198    84.430198    84.430198    3.4764451   -128499.67   -128503.46 
 1080000    297.92478    -129736.4   -128504.13    96.209466    601857.16    84.430198    84.430198    84.430198    3.4764451   -128504.13   -128467.99 
 1090000    298.86019   -129753.62   -128517.48    77.519298    601857.16    84.430198    84.430198    84.430198    3.4764451   -128517.48   -128488.36 
colvars: Synchronizing (emptying the buffer of) trajectory file "out.colvars.traj".
colvars: Writing the state file "rest.colvars.state".
 1100000    298.59951   -129745.75   -128510.68    133.65882    601857.16    84.430198    84.430198    84.430198    3.4764451   -128510.68   -128460.47 
 1110000    300.86018   -129741.37   -128496.95    44.662053    601857.16    84.430198    84.430198    84.430198    3.4764451   -128496.95   -128480.17 
 1120000    299.91834   -129743.59   -128503.07    104.14632    601857.16    84.430198    84.430198    84.430198    3.4764451   -128503.07   -128463.95 
 1130000    302.06682   -129753.31    -128503.9    94.136209    601857.16    84.430198    84.430198    84.430198    3.4764451    -128503.9   -128468.54 
 1140000    301.71556   -129748.42   -128500.46    145.88433    601857.16    84.430198    84.430198    84.430198    3.4764451   -128500.46   -128445.66 
 1150000     299.7048   -129743.77   -128504.13    45.576851    601857.16    84.430198    84.430198    84.430198    3.4764451   -128504.13   -128487.01 
 1160000    299.70878   -129752.41   -128512.75    108.02705    601857.16    84.430198    84.430198    84.430198    3.4764451   -128512.75   -128472.17 
 1170000    300.48789   -129749.09   -128506.21     70.69277    601857.16    84.430198    84.430198    84.430198    3.4764451   -128506.21   -128479.66 
 1180000    301.99361   -129737.37   -128488.27    201.77995    601857.16    84.430198    84.430198    84.430198    3.4764451   -128488.27   -128412.47 
 1190000    298.99721   -129747.39   -128510.68   -5.6806449    601857.16    84.430198    84.430198    84.430198    3.4764451   -128510.68   -128512.81 
colvars: Synchronizing (emptying the buffer of) trajectory file "out.colvars.traj".
colvars: Writing the state file "rest.colvars.state".
 1200000    299.05178   -129751.27   -128514.34    18.765246    601857.16    84.430198    84.430198    84.430198    3.4764451   -128514.34   -128507.29 
 1210000    300.88813   -129749.67   -128505.14    79.896216    601857.16    84.430198    84.430198    84.430198    3.4764451   -128505.14   -128475.13 
 1220000    299.53001   -129745.04   -128506.13    186.85746    601857.16    84.430198    84.430198    84.430198    3.4764451   -128506.13   -128435.93 
 1230000    299.92143   -129758.78   -128518.25   -148.49245    601857.16    84.430198    84.430198    84.430198    3.4764451   -128518.25   -128574.03 
 1240000    298.51651   -129747.47   -128512.75    69.582857    601857.16    84.430198    84.430198    84.430198    3.4764451   -128512.75   -128486.61 
 1250000    297.47779   -129758.45   -128528.02   -171.57087    601857.16    84.430198    84.430198    84.430198    3.4764451   -128528.02   -128592.47 
 1260000     300.1429   -129758.14    -128516.7    -27.54428    601857.16    84.430198    84.430198    84.430198    3.4764451    -128516.7   -128527.04 
 1270000    299.77417   -129740.48   -128500.55    53.418329    601857.16    84.430198    84.430198    84.430198    3.4764451   -128500.55   -128480.48 
 1280000    297.63247   -129753.69   -128522.62   -66.614373    601857.16    84.430198    84.430198    84.430198    3.4764451   -128522.62   -128547.64 
 1290000    299.66134   -129746.23   -128506.77    74.455855    601857.16    84.430198    84.430198    84.430198    3.4764451   -128506.77    -128478.8 
colvars: Synchronizing (emptying the buffer of) trajectory file "out.colvars.traj".
colvars: Writing the state file "rest.colvars.state".
 1300000     299.5062      -129745   -128506.18    205.07981    601857.16    84.430198    84.430198    84.430198    3.4764451   -128506.18   -128429.15 
 1310000    297.94948   -129738.95   -128506.57    149.50919    601857.16    84.430198    84.430198    84.430198    3.4764451   -128506.57   -128450.41 
 1320000    300.33169   -129754.29   -128512.06    18.192209    601857.16    84.430198    84.430198    84.430198    3.4764451   -128512.06   -128505.23 
 1330000    300.45872   -129759.12   -128516.36    131.48164    601857.16    84.430198    84.430198    84.430198    3.4764451   -128516.36   -128466.97 
 1340000    300.79542   -129744.97   -128500.82    116.15232    601857.16    84.430198    84.430198    84.430198    3.4764451   -128500.82   -128457.18 
 1350000    302.20146   -129754.97   -128505.01    81.808521    601857.16    84.430198    84.430198    84.430198    3.4764451   -128505.01   -128474.28 
 1360000    297.61517   -129737.16   -128506.17    173.04694    601857.16    84.430198    84.430198    84.430198    3.4764451   -128506.17   -128441.16 
 1370000    300.81924   -129745.68   -128501.43    130.59537    601857.16    84.430198    84.430198    84.430198    3.4764451   -128501.43   -128452.37 
 1380000    299.59923   -129752.88   -128513.68    4.9989518    601857.16    84.430198    84.430198    84.430198    3.4764451   -128513.68    -128511.8 
 1390000    300.84777   -129755.68   -128511.31    101.09589    601857.16    84.430198    84.430198    84.430198    3.4764451   -128511.31   -128473.33 
colvars: Synchronizing (emptying the buffer of) trajectory file "out.colvars.traj".
colvars: Writing the state file "rest.colvars.state".
 1400000    300.06377   -129753.94   -128512.81    117.47155    601857.16    84.430198    84.430198    84.430198    3.4764451   -128512.81   -128468.69 
 1410000    301.86644    -129747.3   -128498.72    84.107564    601857.16    84.430198    84.430198    84.430198    3.4764451   -128498.72   -128467.12 
 1420000    299.86344   -129743.26   -128502.97    34.079782    601857.16    84.430198    84.430198    84.430198    3.4764451   -128502.97   -128490.16 
 1430000    300.37328   -129753.76   -128511.36    -9.139131    601857.16    84.430198    84.430198    84.430198    3.4764451   -128511.36   -128514.79 
 1440000    300.36617   -129749.26   -128506.88    18.662073    601857.16    84.430198    84.430198    84.430198    3.4764451   -128506.88   -128499.87 
 1450000    299.56783   -129753.46   -128514.39    35.020706    601857.16    84.430198    84.430198    84.430198    3.4764451   -128514.39   -128501.23 
 1460000    301.16048   -129748.46    -128502.8    122.80202    601857.16    84.430198    84.430198    84.430198    3.4764451    -128502.8   -128456.67 
 1470000    301.03905   -129749.48   -128504.33    93.424184    601857.16    84.430198    84.430198    84.430198    3.4764451   -128504.33   -128469.23 
 1480000     299.5848   -129741.27   -128502.13    104.91265    601857.16    84.430198    84.430198    84.430198    3.4764451   -128502.13   -128462.72 
 1490000    298.79732   -129753.59   -128517.71    3.4650607    601857.16    84.430198    84.430198    84.430198    3.4764451   -128517.71   -128516.41 
colvars: Synchronizing (emptying the buffer of) trajectory file "out.colvars.traj".
colvars: Writing the state file "rest.colvars.state".
 1500000    299.64727   -129742.08   -128502.68    130.86729    601857.16    84.430198    84.430198    84.430198    3.4764451   -128502.68   -128453.52 
 1510000    298.91368    -129749.3   -128512.93    26.984338    601857.16    84.430198    84.430198    84.430198    3.4764451   -128512.93    -128502.8 
 1520000    299.26012   -129745.89   -128508.09    164.08813    601857.16    84.430198    84.430198    84.430198    3.4764451   -128508.09   -128446.45 
 1530000    301.28686   -129760.73   -128514.54    31.585093    601857.16    84.430198    84.430198    84.430198    3.4764451   -128514.54   -128502.68 
 1540000    299.48834   -129751.52   -128512.78    33.460714    601857.16    84.430198    84.430198    84.430198    3.4764451   -128512.78   -128500.21 
 1550000    302.36978   -129746.52   -128495.86    128.32355    601857.16    84.430198    84.430198    84.430198    3.4764451   -128495.86   -128447.65 
 1560000     299.7846   -129753.82   -128513.85    69.906206    601857.16    84.430198    84.430198    84.430198    3.4764451   -128513.85   -128487.59 
 1570000     300.1633   -129755.32   -128513.79    72.479228    601857.16    84.430198    84.430198    84.430198    3.4764451   -128513.79   -128486.56 
 1580000    298.74409   -129750.33   -128514.67     17.03688    601857.16    84.430198    84.430198    84.430198    3.4764451   -128514.67   -128508.27 
 1590000    298.39561    -129742.7   -128508.47    132.27735    601857.16    84.430198    84.430198    84.430198    3.4764451   -128508.47   -128458.78 
colvars: Synchronizing (emptying the buffer of) trajectory file "out.colvars.traj".
colvars: Writing the state file "rest.colvars.state".
 1600000     299.0398   -129755.96   -128519.08    85.987827    601857.16    84.430198    84.430198    84.430198    3.4764451   -128519.08   -128486.77 
 1610000    298.29626   -129748.48   -128514.67    98.578215    601857.16    84.430198    84.430198    84.430198    3.4764451   -128514.67   -128477.64 
 1620000    301.55289   -129752.76   -128505.47    71.265973    601857.16    84.430198    84.430198    84.430198    3.4764451   -128505.47    -128478.7 
 1630000    302.04012    -129756.5    -128507.2    3.2596391    601857.16    84.430198    84.430198    84.430198    3.4764451    -128507.2   -128505.98 
 1640000     301.0002    -129749.1    -128504.1    94.961516    601857.16    84.430198    84.430198    84.430198    3.4764451    -128504.1   -128468.43 
 1650000    300.38278   -129748.23   -128505.79    128.10275    601857.16    84.430198    84.430198    84.430198    3.4764451   -128505.79   -128457.67 
 1660000    303.13021   -129744.74   -128490.94     102.0389    601857.16    84.430198    84.430198    84.430198    3.4764451   -128490.94   -128452.61 
 1670000    298.01938   -129748.84   -128516.17    56.086503    601857.16    84.430198    84.430198    84.430198    3.4764451   -128516.17    -128495.1 
 1680000    299.72695   -129750.04   -128510.31     117.8815    601857.16    84.430198    84.430198    84.430198    3.4764451   -128510.31   -128466.03 
 1690000    298.92897   -129742.78   -128506.36    84.987353    601857.16    84.430198    84.430198    84.430198    3.4764451   -128506.36   -128474.43 
colvars: Synchronizing (emptying the buffer of) trajectory file "out.colvars.traj".
colvars: Writing the state file "rest.colvars.state".
 1700000    300.84692    -129742.7   -128498.34    182.64735    601857.16    84.430198    84.430198    84.430198    3.4764451   -128498.34   -128429.72 
 1710000    300.34383   -129750.39   -128508.11    46.206925    601857.16    84.430198    84.430198    84.430198    3.4764451   -128508.11   -128490.75 
 1720000    300.48968   -129746.94   -128504.05    118.34187    601857.16    84.430198    84.430198    84.430198    3.4764451   -128504.05    -128459.6 
 1730000    299.41997   -129754.55   -128516.09   -64.036571    601857.16    84.430198    84.430198    84.430198    3.4764451   -128516.09   -128540.14 
 1740000     300.0609   -129760.28   -128519.16   -55.836781    601857.16    84.430198    84.430198    84.430198    3.4764451   -128519.16   -128540.14 
 1750000     299.0935    -129748.2   -128511.09    128.02047    601857.16    84.430198    84.430198    84.430198    3.4764451   -128511.09      -128463 
 1760000    299.58038   -129750.21   -128511.09    95.079352    601857.16    84.430198    84.430198    84.430198    3.4764451   -128511.09   -128475.37 
 1770000    300.55865   -129749.94   -128506.77    32.065554    601857.16    84.430198    84.430198    84.430198    3.4764451   -128506.77   -128494.73 
 1780000    297.88078   -129747.77   -128515.68    74.776733    601857.16    84.430198    84.430198    84.430198    3.4764451   -128515.68   -128487.59 
 1790000     302.1594   -129753.01   -128503.22    17.020926    601857.16    84.430198    84.430198    84.430198    3.4764451   -128503.22   -128496.83 
colvars: Synchronizing (emptying the buffer of) trajectory file "out.colvars.traj".
colvars: Writing the state file "rest.colvars.state".
 1800000    299.94269   -129746.93   -128506.31    180.61986    601857.16    84.430198    84.430198    84.430198    3.4764451   -128506.31   -128438.46 
 1810000    301.37092   -129747.01   -128500.48    80.411281    601857.16    84.430198    84.430198    84.430198    3.4764451   -128500.48   -128470.27 
 1820000    298.73833   -129756.75   -128521.11    74.596437    601857.16    84.430198    84.430198    84.430198    3.4764451   -128521.11   -128493.09 
 1830000    300.01322   -129746.18   -128505.27    61.811083    601857.16    84.430198    84.430198    84.430198    3.4764451   -128505.27   -128482.05 
 1840000    301.32005   -129747.11   -128500.79    198.01429    601857.16    84.430198    84.430198    84.430198    3.4764451   -128500.79   -128426.41 
 1850000    300.68662   -129739.31   -128495.62    94.112371    601857.16    84.430198    84.430198    84.430198    3.4764451   -128495.62   -128460.26 
 1860000    300.87032   -129756.82   -128512.37    57.592865    601857.16    84.430198    84.430198    84.430198    3.4764451   -128512.37   -128490.73 
 1870000    300.73876    -129741.9   -128497.99    33.029742    601857.16    84.430198    84.430198    84.430198    3.4764451   -128497.99   -128485.58 
 1880000    296.58388   -129749.39   -128522.66    64.958656    601857.16    84.430198    84.430198    84.430198    3.4764451   -128522.66   -128498.26 
 1890000    299.24816   -129755.48   -128517.73    19.862564    601857.16    84.430198    84.430198    84.430198    3.4764451   -128517.73   -128510.27 
colvars: Synchronizing (emptying the buffer of) trajectory file "out.colvars.traj".
colvars: Writing the state file "rest.colvars.state".
 1900000    300.79322   -129750.71   -128506.57    129.13944    601857.16    84.430198    84.430198    84.430198    3.4764451   -128506.57   -128458.06 
 1910000    299.46138   -129752.53    -128513.9    61.002973    601857.16    84.430198    84.430198    84.430198    3.4764451    -128513.9   -128490.98 
 1920000    299.97485   -129757.11   -128516.35    65.165256    601857.16    84.430198    84.430198    84.430198    3.4764451   -128516.35   -128491.87 
 1930000    298.19929   -129746.23   -128512.82    101.48559    601857.16    84.430198    84.430198    84.430198    3.4764451   -128512.82    -128474.7 
 1940000    301.20503   -129756.06   -128510.22   -19.173623    601857.16    84.430198    84.430198    84.430198    3.4764451   -128510.22   -128517.42 
 1950000    300.09554   -129740.49   -128499.23    151.43676    601857.16    84.430198    84.430198    84.430198    3.4764451   -128499.23   -128442.34 
 1960000    300.55874   -129752.25   -128509.08    82.164765    601857.16    84.430198    84.430198    84.430198    3.4764451   -128509.08   -128478.22 
 1970000    298.95463   -129751.95   -128515.41    2.9854166    601857.16    84.430198    84.430198    84.430198    3.4764451   -128515.41   -128514.29 
 1980000    298.83639   -129758.03   -128521.99    42.409953    601857.16    84.430198    84.430198    84.430198    3.4764451   -128521.99   -128506.06 
 1990000    299.85285   -129755.54   -128515.29   -69.410998    601857.16    84.430198    84.430198    84.430198    3.4764451   -128515.29   -128541.36 
colvars: Synchronizing (emptying the buffer of) trajectory file "out.colvars.traj".
colvars: Writing the state file "rest.colvars.state".
 2000000     297.0469   -129746.78   -128518.14      43.0404    601857.16    84.430198    84.430198    84.430198    3.4764451   -128518.14   -128501.97 
 2010000    300.05003   -129740.86    -128499.8    146.82612    601857.16    84.430198    84.430198    84.430198    3.4764451    -128499.8   -128444.64 
 2020000    300.41233   -129744.27   -128501.71     98.75668    601857.16    84.430198    84.430198    84.430198    3.4764451   -128501.71   -128464.61 
 2030000    298.99156   -129738.44   -128501.75    154.63229    601857.16    84.430198    84.430198    84.430198    3.4764451   -128501.75   -128443.66 
 2040000    300.62297    -129756.7   -128513.27    18.297889    601857.16    84.430198    84.430198    84.430198    3.4764451   -128513.27   -128506.39 
 2050000    298.87911   -129752.74   -128516.52    47.887197    601857.16    84.430198    84.430198    84.430198    3.4764451   -128516.52   -128498.53 
 2060000    301.68828   -129750.16   -128502.32    113.09996    601857.16    84.430198    84.430198    84.430198    3.4764451   -128502.32   -128459.83 
 2070000    299.48361   -129742.06   -128503.33   -2.5565923    601857.16    84.430198    84.430198    84.430198    3.4764451   -128503.33   -128504.29 
 2080000    300.30669   -129753.51   -128511.38    57.479406    601857.16    84.430198    84.430198    84.430198    3.4764451   -128511.38   -128489.79 
 2090000    298.96051   -129750.11   -128513.55    45.767885    601857.16    84.430198    84.430198    84.430198    3.4764451   -128513.55   -128496.35 
colvars: Synchronizing (emptying the buffer of) trajectory file "out.colvars.traj".
colvars: Writing the state file "rest.colvars.state".
 2100000    300.24081    -129744.9   -128503.04    137.65022    601857.16    84.430198    84.430198    84.430198    3.4764451   -128503.04   -128451.33 
 2110000    299.33998   -129743.53    -128505.4    15.470861    601857.16    84.430198    84.430198    84.430198    3.4764451    -128505.4   -128499.59 
 2120000    299.76968   -129753.08   -128513.17    19.217024    601857.16    84.430198    84.430198    84.430198    3.4764451   -128513.17   -128505.95 
 2130000     300.6852   -129746.08   -128502.39    66.654438    601857.16    84.430198    84.430198    84.430198    3.4764451   -128502.39   -128477.35 
 2140000    301.95511   -129759.58   -128510.63    -48.13459    601857.16    84.430198    84.430198    84.430198    3.4764451   -128510.63   -128528.72 
 2150000    301.53812   -129740.22      -128493    173.81849    601857.16    84.430198    84.430198    84.430198    3.4764451      -128493    -128427.7 
 2160000    301.08047   -129742.22   -128496.89    127.00844    601857.16    84.430198    84.430198    84.430198    3.4764451   -128496.89   -128449.18 
 2170000    299.29617   -129738.87   -128500.92    215.69423    601857.16    84.430198    84.430198    84.430198    3.4764451   -128500.92    -128419.9 
 2180000    301.77829   -129753.54   -128505.33    38.270646    601857.16    84.430198    84.430198    84.430198    3.4764451   -128505.33   -128490.95 
 2190000    299.60787   -129745.08   -128505.85    59.403081    601857.16    84.430198    84.430198    84.430198    3.4764451   -128505.85   -128483.53 
colvars: Synchronizing (emptying the buffer of) trajectory file "out.colvars.traj".
colvars: Writing the state file "rest.colvars.state".
 2200000    299.56679   -129760.61   -128521.54    18.826851    601857.16    84.430198    84.430198    84.430198    3.4764451   -128521.54   -128514.47 
 2210000    298.86489   -129749.23   -128513.07    106.15884    601857.16    84.430198    84.430198    84.430198    3.4764451   -128513.07   -128473.19 
 2220000    296.63385   -129743.91   -128516.98    99.625923    601857.16    84.430198    84.430198    84.430198    3.4764451   -128516.98   -128479.55 
 2230000    299.82703   -129749.02   -128508.88    34.065221    601857.16    84.430198    84.430198    84.430198    3.4764451   -128508.88   -128496.08 
 2240000    299.20751   -129743.91   -128506.33    66.833108    601857.16    84.430198    84.430198    84.430198    3.4764451   -128506.33   -128481.22 
 2250000    299.65135   -129745.93   -128506.51    40.929523    601857.16    84.430198    84.430198    84.430198    3.4764451   -128506.51   -128491.14 
 2260000    298.79933   -129747.44   -128511.54    43.840743    601857.16    84.430198    84.430198    84.430198    3.4764451   -128511.54   -128495.08 
 2270000    299.95952   -129756.58   -128515.89    69.500558    601857.16    84.430198    84.430198    84.430198    3.4764451   -128515.89   -128489.78 
 2280000    300.00308   -129757.02   -128516.15    0.8666892    601857.16    84.430198    84.430198    84.430198    3.4764451   -128516.15   -128515.83 
 2290000    300.57836   -129748.13   -128504.88    127.50101    601857.16    84.430198    84.430198    84.430198    3.4764451   -128504.88   -128456.99 
colvars: Synchronizing (emptying the buffer of) trajectory file "out.colvars.traj".
colvars: Writing the state file "rest.colvars.state".
 2300000    300.43906   -129739.29   -128496.61    281.65281    601857.16    84.430198    84.430198    84.430198    3.4764451   -128496.61   -128390.81 
 2310000    299.13924   -129747.15   -128509.85   -31.370115    601857.16    84.430198    84.430198    84.430198    3.4764451   -128509.85   -128521.64 
 2320000    299.12881    -129755.7   -128518.44     83.81667    601857.16    84.430198    84.430198    84.430198    3.4764451   -128518.44   -128486.95 
 2330000    299.92171   -129756.81   -128516.27    12.384672    601857.16    84.430198    84.430198    84.430198    3.4764451   -128516.27   -128511.62 
 2340000    300.57316   -129756.01   -128512.78    100.04107    601857.16    84.430198    84.430198    84.430198    3.4764451   -128512.78    -128475.2 
 2350000    299.96847   -129737.12   -128496.39    163.62349    601857.16    84.430198    84.430198    84.430198    3.4764451   -128496.39   -128434.92 
 2360000    298.68792   -129747.46   -128512.03    67.249805    601857.16    84.430198    84.430198    84.430198    3.4764451   -128512.03   -128486.76 
 2370000    297.87861   -129747.91   -128515.82    28.459404    601857.16    84.430198    84.430198    84.430198    3.4764451   -128515.82   -128505.13 
 2380000    299.56234   -129744.89   -128505.84    105.79378    601857.16    84.430198    84.430198    84.430198    3.4764451   -128505.84    -128466.1 
 2390000    300.03358   -129750.43   -128509.43    24.737614    601857.16    84.430198    84.430198    84.430198    3.4764451   -128509.43   -128500.14 
colvars: Synchronizing (emptying the buffer of) trajectory file "out.colvars.traj".
colvars: Writing the state file "rest.colvars.state".
 2400000    300.51347   -129752.04   -128509.06    1.6844524    601857.16    84.430198    84.430198    84.430198    3.4764451   -128509.06   -128508.43 
 2410000    299.98122   -129758.25   -128517.47    20.087153    601857.16    84.430198    84.430198    84.430198    3.4764451   -128517.47   -128509.92 
 2420000    303.44658   -129754.13   -128499.01   -27.914383    601857.16    84.430198    84.430198    84.430198    3.4764451   -128499.01    -128509.5 
 2430000    300.18896   -129746.09   -128504.45    113.79362    601857.16    84.430198    84.430198    84.430198    3.4764451   -128504.45    -128461.7 
 2440000    299.17367   -129752.49   -128515.05    59.379815    601857.16    84.430198    84.430198    84.430198    3.4764451   -128515.05   -128492.74 
 2450000    301.26257   -129750.39   -128504.31     110.4672    601857.16    84.430198    84.430198    84.430198    3.4764451   -128504.31   -128462.81 
 2460000    300.59313    -129757.9   -128514.58   -15.156298    601857.16    84.430198    84.430198    84.430198    3.4764451   -128514.58   -128520.28 
 2470000    300.73709   -129745.25   -128501.34     180.8757    601857.16    84.430198    84.430198    84.430198    3.4764451   -128501.34   -128433.39 
 2480000    299.78802   -129752.72   -128512.73    27.602534    601857.16    84.430198    84.430198    84.430198    3.4764451   -128512.73   -128502.37 
 2490000    298.00997    -129759.6   -128526.98   -3.6526977    601857.16    84.430198    84.430198    84.430198    3.4764451   -128526.98   -128528.35 
colvars: Synchronizing (emptying the buffer of) trajectory file "out.colvars.traj".
colvars: Writing the state file "rest.colvars.state".
 2500000    300.99921   -129749.11   -128504.12    98.769686    601857.16    84.430198    84.430198    84.430198    3.4764451   -128504.12   -128467.01 
 2510000    301.50925   -129754.31   -128507.21   -77.970204    601857.16    84.430198    84.430198    84.430198    3.4764451   -128507.21    -128536.5 
 2520000    302.11539   -129747.05   -128497.45    146.08927    601857.16    84.430198    84.430198    84.430198    3.4764451   -128497.45   -128442.57 
 2530000    300.53013   -129745.25    -128502.2    175.28588    601857.16    84.430198    84.430198    84.430198    3.4764451    -128502.2   -128436.35 
 2540000    299.13723   -129755.31   -128518.02   -3.9944617    601857.16    84.430198    84.430198    84.430198    3.4764451   -128518.02   -128519.53 
 2550000    300.73901   -129751.16   -128507.24       117.85    601857.16    84.430198    84.430198    84.430198    3.4764451   -128507.24   -128462.97 
 2560000     299.3212   -129744.54   -128506.49    61.979472    601857.16    84.430198    84.430198    84.430198    3.4764451   -128506.49    -128483.2 
 2570000    298.21237   -129765.72   -128532.25   -63.183313    601857.16    84.430198    84.430198    84.430198    3.4764451   -128532.25   -128555.99 
 2580000    300.44341   -129748.69      -128506    101.96018    601857.16    84.430198    84.430198    84.430198    3.4764451      -128506   -128467.69 
 2590000    297.88984   -129754.33    -128522.2   -17.008886    601857.16    84.430198    84.430198    84.430198    3.4764451    -128522.2   -128528.59 
colvars: Synchronizing (emptying the buffer of) trajectory file "out.colvars.traj".
colvars: Writing the state file "rest.colvars.state".
 2600000    300.43927   -129748.74   -128506.06    148.75372    601857.16    84.430198    84.430198    84.430198    3.4764451   -128506.06   -128450.18 
 2610000    298.27566   -129748.37   -128514.65    183.72637    601857.16    84.430198    84.430198    84.430198    3.4764451   -128514.65   -128445.63 
 2620000    300.62004   -129755.12    -128511.7    127.12525    601857.16    84.430198    84.430198    84.430198    3.4764451    -128511.7   -128463.95 
 2630000    299.85579   -129752.72   -128512.45    64.446875    601857.16    84.430198    84.430198    84.430198    3.4764451   -128512.45   -128488.24 
 2640000    297.32625   -129754.57   -128524.77   -20.555075    601857.16    84.430198    84.430198    84.430198    3.4764451   -128524.77   -128532.49 
 2650000    299.89459   -129752.37   -128511.95   -13.186281    601857.16    84.430198    84.430198    84.430198    3.4764451   -128511.95    -128516.9 
 2660000    300.55905   -129746.23   -128503.06    120.49483    601857.16    84.430198    84.430198    84.430198    3.4764451   -128503.06   -128457.79 
 2670000    300.11609   -129755.49   -128514.16    48.430543    601857.16    84.430198    84.430198    84.430198    3.4764451   -128514.16   -128495.96 
 2680000    301.30952   -129765.85   -128519.58   -57.859251    601857.16    84.430198    84.430198    84.430198    3.4764451   -128519.58   -128541.31 
 2690000    298.33933   -129761.75   -128527.76   -20.555389    601857.16    84.430198    84.430198    84.430198    3.4764451   -128527.76   -128535.48 
colvars: Synchronizing (emptying the buffer of) trajectory file "out.colvars.traj".
colvars: Writing the state file "rest.colvars.state".
 2700000    300.25233   -129739.36   -128497.45    152.16003    601857.16    84.430198    84.430198    84.430198    3.4764451   -128497.45    -128440.3 
 2710000    298.10844   -129746.91   -128513.87    48.452766    601857.16    84.430198    84.430198    84.430198    3.4764451   -128513.87   -128495.67 
 2720000    300.43061    -129759.7   -128517.06   -25.866092    601857.16    84.430198    84.430198    84.430198    3.4764451   -128517.06   -128526.77 
 2730000    301.24489   -129763.21   -128517.21    -3.250712    601857.16    84.430198    84.430198    84.430198    3.4764451   -128517.21   -128518.43 
 2740000    298.72676   -129755.24   -128519.65    -8.886148    601857.16    84.430198    84.430198    84.430198    3.4764451   -128519.65   -128522.98 
 2750000    302.07587   -129750.98   -128501.53    95.987448    601857.16    84.430198    84.430198    84.430198    3.4764451   -128501.53   -128465.47 
 2760000    301.58117   -129753.24   -128505.84   -0.2915111    601857.16    84.430198    84.430198    84.430198    3.4764451   -128505.84   -128505.95 
 2770000    299.23003   -129754.86   -128517.18    41.336339    601857.16    84.430198    84.430198    84.430198    3.4764451   -128517.18   -128501.65 
 2780000    300.15047   -129744.89   -128503.41     114.6533    601857.16    84.430198    84.430198    84.430198    3.4764451   -128503.41   -128460.34 
 2790000    301.70294   -129741.87   -128493.97    172.19301    601857.16    84.430198    84.430198    84.430198    3.4764451   -128493.97   -128429.28 
colvars: Synchronizing (emptying the buffer of) trajectory file "out.colvars.traj".
colvars: Writing the state file "rest.colvars.state".
 2800000    301.90286    -129744.7   -128495.97    92.306726    601857.16    84.430198    84.430198    84.430198    3.4764451   -128495.97    -128461.3 
 2810000     300.2211   -129747.46   -128505.69    39.382518    601857.16    84.430198    84.430198    84.430198    3.4764451   -128505.69    -128490.9 
 2820000    303.01073   -129741.87   -128488.56    66.512455    601857.16    84.430198    84.430198    84.430198    3.4764451   -128488.56   -128463.58 
 2830000    298.11114    -129751.7   -128518.65     121.1714    601857.16    84.430198    84.430198    84.430198    3.4764451   -128518.65   -128473.14 
 2840000    299.41392   -129752.03    -128513.6    113.31293    601857.16    84.430198    84.430198    84.430198    3.4764451    -128513.6   -128471.03 
 2850000    301.73172   -129748.56   -128500.54    81.850349    601857.16    84.430198    84.430198    84.430198    3.4764451   -128500.54    -128469.8 
 2860000    299.85197   -129752.27   -128512.02    148.49764    601857.16    84.430198    84.430198    84.430198    3.4764451   -128512.02   -128456.24 
 2870000    300.05234   -129744.78   -128503.71    192.42082    601857.16    84.430198    84.430198    84.430198    3.4764451   -128503.71   -128431.43 
 2880000    302.75798   -129752.43   -128500.17    84.457097    601857.16    84.430198    84.430198    84.430198    3.4764451   -128500.17   -128468.44 
 2890000    300.67602   -129751.12   -128507.47    10.947848    601857.16    84.430198    84.430198    84.430198    3.4764451   -128507.47   -128503.35 
colvars: Synchronizing (emptying the buffer of) trajectory file "out.colvars.traj".
colvars: Writing the state file "rest.colvars.state".
 2900000      300.305   -129742.55   -128500.43    51.421056    601857.16    84.430198    84.430198    84.430198    3.4764451   -128500.43   -128481.12 
 2910000    297.40087   -129741.22   -128511.11    203.79592    601857.16    84.430198    84.430198    84.430198    3.4764451   -128511.11   -128434.55 
 2920000    302.46742    -129755.8   -128504.74   -6.2538129    601857.16    84.430198    84.430198    84.430198    3.4764451   -128504.74   -128507.09 
 2930000    300.59547   -129753.35   -128510.03    34.138087    601857.16    84.430198    84.430198    84.430198    3.4764451   -128510.03   -128497.21 
 2940000    299.26133      -129756    -128518.2   -78.167555    601857.16    84.430198    84.430198    84.430198    3.4764451    -128518.2   -128547.56 
 2950000    299.41572   -129754.98   -128516.54    104.37408    601857.16    84.430198    84.430198    84.430198    3.4764451   -128516.54   -128477.33 
 2960000     298.6192   -129747.34   -128512.19    83.275608    601857.16    84.430198    84.430198    84.430198    3.4764451   -128512.19   -128480.91 
 2970000    299.82168   -129738.98   -128498.86    163.21344    601857.16    84.430198    84.430198    84.430198    3.4764451   -128498.86   -128437.55 
 2980000    301.37527   -129741.13   -128494.58    184.95596    601857.16    84.430198    84.430198    84.430198    3.4764451   -128494.58    -128425.1 
 2990000    301.40841   -129760.92   -128514.24    26.195519    601857.16    84.430198    84.430198    84.430198    3.4764451   -128514.24    -128504.4 
colvars: Synchronizing (emptying the buffer of) trajectory file "out.colvars.traj".
colvars: Writing the state file "rest.colvars.state".
 3000000      298.957   -129756.67   -128520.12   -32.032558    601857.16    84.430198    84.430198    84.430198    3.4764451   -128520.12   -128532.16 
 3010000    299.66461   -129753.34   -128513.87    72.095956    601857.16    84.430198    84.430198    84.430198    3.4764451   -128513.87   -128486.78 
 3020000    301.33622   -129749.21   -128502.83    49.858644    601857.16    84.430198    84.430198    84.430198    3.4764451   -128502.83    -128484.1 
 3030000    300.32246   -129745.97   -128503.78    216.55122    601857.16    84.430198    84.430198    84.430198    3.4764451   -128503.78   -128422.43 
 3040000    301.22972   -129748.01   -128502.07     79.17313    601857.16    84.430198    84.430198    84.430198    3.4764451   -128502.07   -128472.33 
 3050000    298.56975   -129748.34   -128513.39    172.60244    601857.16    84.430198    84.430198    84.430198    3.4764451   -128513.39   -128448.55 
 3060000    300.76459   -129754.68   -128510.66    1.1625383    601857.16    84.430198    84.430198    84.430198    3.4764451   -128510.66   -128510.23 
 3070000     299.2661   -129747.36   -128509.54    128.74621    601857.16    84.430198    84.430198    84.430198    3.4764451   -128509.54   -128461.18 
 3080000    299.02923   -129754.91   -128518.07    77.621511    601857.16    84.430198    84.430198    84.430198    3.4764451   -128518.07   -128488.91 
 3090000    300.20026   -129754.82   -128513.13    43.602681    601857.16    84.430198    84.430198    84.430198    3.4764451   -128513.13   -128496.75 
colvars: Synchronizing (emptying the buffer of) trajectory file "out.colvars.traj".
colvars: Writing the state file "rest.colvars.state".
 3100000    300.51358   -129740.81   -128497.83    116.60024    601857.16    84.430198    84.430198    84.430198    3.4764451   -128497.83   -128454.03 
 3110000    301.60691      -129749   -128501.49    181.29175    601857.16    84.430198    84.430198    84.430198    3.4764451   -128501.49   -128433.39 
 3120000    299.71868   -129750.77   -128511.07  -0.15277466    601857.16    84.430198    84.430198    84.430198    3.4764451   -128511.07   -128511.13 
 3130000    298.96835   -129749.98   -128513.39    -1.900874    601857.16    84.430198    84.430198    84.430198    3.4764451   -128513.39   -128514.11 
 3140000    300.47044    -129751.5   -128508.69   -37.456654    601857.16    84.430198    84.430198    84.430198    3.4764451   -128508.69   -128522.76 
 3150000    300.95875   -129741.92    -128497.1    211.49855    601857.16    84.430198    84.430198    84.430198    3.4764451    -128497.1   -128417.65 
 3160000    297.52975   -129749.91   -128519.27    59.615647    601857.16    84.430198    84.430198    84.430198    3.4764451   -128519.27   -128496.88 
 3170000    301.13564   -129736.41   -128490.85      231.699    601857.16    84.430198    84.430198    84.430198    3.4764451   -128490.85   -128403.81 
 3180000    298.71417   -129741.61   -128506.07    89.556676    601857.16    84.430198    84.430198    84.430198    3.4764451   -128506.07   -128472.42 
 3190000     299.6207   -129748.19    -128508.9    76.825093    601857.16    84.430198    84.430198    84.430198    3.4764451    -128508.9   -128480.04 
colvars: Synchronizing (emptying the buffer of) trajectory file "out.colvars.traj".
colvars: Writing the state file "rest.colvars.state".
 3200000    300.16713   -129734.22   -128492.67    159.06868    601857.16    84.430198    84.430198    84.430198    3.4764451   -128492.67   -128432.91 
 3210000    299.86043   -129746.19   -128505.91    136.16569    601857.16    84.430198    84.430198    84.430198    3.4764451   -128505.91   -128454.76 
 3220000    299.53022   -129747.69   -128508.77    25.772637    601857.16    84.430198    84.430198    84.430198    3.4764451   -128508.77   -128499.09 
 3230000    298.68361    -129747.1   -128511.69    76.724856    601857.16    84.430198    84.430198    84.430198    3.4764451   -128511.69   -128482.87 
 3240000     299.0565   -129745.88   -128508.92    100.84554    601857.16    84.430198    84.430198    84.430198    3.4764451   -128508.92   -128471.04 
 3250000    301.15425   -129756.55   -128510.91   -11.324138    601857.16    84.430198    84.430198    84.430198    3.4764451   -128510.91   -128515.17 
 3260000    299.23882   -129748.46   -128510.75    45.007599    601857.16    84.430198    84.430198    84.430198    3.4764451   -128510.75   -128493.85 
 3270000    302.22909   -129758.68    -128508.6    41.136419    601857.16    84.430198    84.430198    84.430198    3.4764451    -128508.6   -128493.15 
[...]
colvars: Synchronizing (emptying the buffer of) trajectory file "out.colvars.traj".
colvars: Writing the state file "rest.colvars.state".
 8900000    300.62115   -129752.21   -128508.78    60.337575    601857.16    84.430198    84.430198    84.430198    3.4764451   -128508.78   -128486.11 
 8910000     299.7902   -129739.55   -128499.55       149.64    601857.16    84.430198    84.430198    84.430198    3.4764451   -128499.55   -128443.34 
 8920000    300.33623   -129750.51   -128508.27    58.481907    601857.16    84.430198    84.430198    84.430198    3.4764451   -128508.27    -128486.3 
 8930000    295.69535   -129754.41   -128531.35    42.529835    601857.16    84.430198    84.430198    84.430198    3.4764451   -128531.35   -128515.38 
 8940000    299.42634   -129747.86   -128509.37    199.85467    601857.16    84.430198    84.430198    84.430198    3.4764451   -128509.37   -128434.29 
 8950000    297.99925   -129729.47   -128496.88    278.39989    601857.16    84.430198    84.430198    84.430198    3.4764451   -128496.88    -128392.3 
 8960000    299.15394   -129750.47   -128513.11   -4.4641249    601857.16    84.430198    84.430198    84.430198    3.4764451   -128513.11   -128514.78 
 8970000    298.36107   -129748.22   -128514.14    214.08301    601857.16    84.430198    84.430198    84.430198    3.4764451   -128514.14   -128433.72 
 8980000    299.16681   -129750.57   -128513.16    172.33923    601857.16    84.430198    84.430198    84.430198    3.4764451   -128513.16   -128448.42 
 8990000    299.01811   -129754.95   -128518.16    23.958557    601857.16    84.430198    84.430198    84.430198    3.4764451   -128518.16   -128509.16 
colvars: Synchronizing (emptying the buffer of) trajectory file "out.colvars.traj".
colvars: Writing the state file "rest.colvars.state".
 9000000    300.37204   -129750.98   -128508.58    70.396232    601857.16    84.430198    84.430198    84.430198    3.4764451   -128508.58   -128482.14 
 9010000    299.03879   -129754.72   -128517.84    27.176359    601857.16    84.430198    84.430198    84.430198    3.4764451   -128517.84   -128507.63 
 9020000    299.69988   -129740.71   -128501.09    231.69699    601857.16    84.430198    84.430198    84.430198    3.4764451   -128501.09   -128414.05 
 9030000    299.34995   -129751.44   -128513.27    47.673768    601857.16    84.430198    84.430198    84.430198    3.4764451   -128513.27   -128495.36 
 9040000     299.5245   -129749.31   -128510.42    53.344517    601857.16    84.430198    84.430198    84.430198    3.4764451   -128510.42   -128490.38 
 9050000    298.64985   -129747.65   -128512.38    38.870685    601857.16    84.430198    84.430198    84.430198    3.4764451   -128512.38   -128497.77 
 9060000    299.76983   -129761.69   -128521.79   -82.941061    601857.16    84.430198    84.430198    84.430198    3.4764451   -128521.79   -128552.94 
 9070000     299.2478   -129749.31   -128511.56    162.48525    601857.16    84.430198    84.430198    84.430198    3.4764451   -128511.56   -128450.53 
 9080000    300.47771   -129753.77   -128510.93    128.11816    601857.16    84.430198    84.430198    84.430198    3.4764451   -128510.93   -128462.81 
 9090000    301.41063   -129747.28   -128500.58    85.078911    601857.16    84.430198    84.430198    84.430198    3.4764451   -128500.58   -128468.62 
colvars: Synchronizing (emptying the buffer of) trajectory file "out.colvars.traj".
colvars: Writing the state file "rest.colvars.state".
 9100000    299.68081   -129758.17   -128518.63   -1.3779456    601857.16    84.430198    84.430198    84.430198    3.4764451   -128518.63   -128519.15 
 9110000    303.37382   -129751.11    -128496.3     53.81696    601857.16    84.430198    84.430198    84.430198    3.4764451    -128496.3   -128476.08 
 9120000    301.99557   -129749.59   -128500.48    135.40586    601857.16    84.430198    84.430198    84.430198    3.4764451   -128500.48   -128449.61 
 9130000     299.4478   -129753.93   -128515.36   -1.4868373    601857.16    84.430198    84.430198    84.430198    3.4764451   -128515.36   -128515.91 
 9140000    297.89048   -129755.32   -128523.18    27.277525    601857.16    84.430198    84.430198    84.430198    3.4764451   -128523.18   -128512.94 
 9150000    300.89107   -129755.15    -128510.6    46.488697    601857.16    84.430198    84.430198    84.430198    3.4764451    -128510.6   -128493.14 
 9160000    298.72568   -129755.77   -128520.18    107.22335    601857.16    84.430198    84.430198    84.430198    3.4764451   -128520.18    -128479.9 
 9170000    299.83675   -129759.81   -128519.63    21.925952    601857.16    84.430198    84.430198    84.430198    3.4764451   -128519.63   -128511.39 
 9180000    300.87843   -129746.37   -128501.88    104.85869    601857.16    84.430198    84.430198    84.430198    3.4764451   -128501.88   -128462.49 
 9190000    301.42779   -129751.36    -128504.6    102.43296    601857.16    84.430198    84.430198    84.430198    3.4764451    -128504.6   -128466.12 
colvars: Synchronizing (emptying the buffer of) trajectory file "out.colvars.traj".
colvars: Writing the state file "rest.colvars.state".
 9200000    300.43935   -129752.63   -128509.95     98.56252    601857.16    84.430198    84.430198    84.430198    3.4764451   -128509.95   -128472.93 
 9210000    300.28273   -129749.93   -128507.91    100.89136    601857.16    84.430198    84.430198    84.430198    3.4764451   -128507.91   -128470.01 
 9220000    302.72072   -129748.24   -128496.12    65.143656    601857.16    84.430198    84.430198    84.430198    3.4764451   -128496.12   -128471.65 
 9230000    301.29817   -129750.74   -128504.51    158.82832    601857.16    84.430198    84.430198    84.430198    3.4764451   -128504.51   -128444.85 
 9240000    299.95806    -129746.4   -128505.71    203.87903    601857.16    84.430198    84.430198    84.430198    3.4764451   -128505.71   -128429.13 
 9250000    300.64074   -129754.38   -128510.87    84.993195    601857.16    84.430198    84.430198    84.430198    3.4764451   -128510.87   -128478.94 
 9260000    301.25519   -129745.84   -128499.79    145.05466    601857.16    84.430198    84.430198    84.430198    3.4764451   -128499.79    -128445.3 
 9270000    299.09542   -129750.14   -128513.02    121.22472    601857.16    84.430198    84.430198    84.430198    3.4764451   -128513.02   -128467.48 
 9280000    298.21528   -129748.98    -128515.5    37.982794    601857.16    84.430198    84.430198    84.430198    3.4764451    -128515.5   -128501.23 
 9290000    295.44631   -129750.91   -128528.89   -37.808967    601857.16    84.430198    84.430198    84.430198    3.4764451   -128528.89   -128543.09 
colvars: Synchronizing (emptying the buffer of) trajectory file "out.colvars.traj".
colvars: Writing the state file "rest.colvars.state".
 9300000    302.54768   -129745.08   -128493.68    198.72212    601857.16    84.430198    84.430198    84.430198    3.4764451   -128493.68   -128419.03 
 9310000    299.18476   -129765.71   -128528.22   -36.255005    601857.16    84.430198    84.430198    84.430198    3.4764451   -128528.22   -128541.84 
 9320000    300.80572   -129756.42   -128512.23    47.046485    601857.16    84.430198    84.430198    84.430198    3.4764451   -128512.23   -128494.55 
 9330000    302.66567   -129757.89      -128506   -40.473712    601857.16    84.430198    84.430198    84.430198    3.4764451      -128506   -128521.21 
 9340000    301.72139   -129739.25   -128491.27    192.25055    601857.16    84.430198    84.430198    84.430198    3.4764451   -128491.27   -128419.05 
 9350000    303.35959   -129743.45    -128488.7    146.64283    601857.16    84.430198    84.430198    84.430198    3.4764451    -128488.7   -128433.61 
 9360000    302.48864   -129748.54   -128497.39    134.35244    601857.16    84.430198    84.430198    84.430198    3.4764451   -128497.39   -128446.92 
 9370000    301.57885   -129744.73   -128497.34    102.80303    601857.16    84.430198    84.430198    84.430198    3.4764451   -128497.34   -128458.73 
 9380000    300.92661   -129737.56   -128492.87    219.41755    601857.16    84.430198    84.430198    84.430198    3.4764451   -128492.87   -128410.45 
 9390000    300.46005   -129753.91   -128511.15   -1.6750435    601857.16    84.430198    84.430198    84.430198    3.4764451   -128511.15   -128511.78 
colvars: Synchronizing (emptying the buffer of) trajectory file "out.colvars.traj".
colvars: Writing the state file "rest.colvars.state".
 9400000    301.88802   -129744.59   -128495.92    64.017168    601857.16    84.430198    84.430198    84.430198    3.4764451   -128495.92   -128471.87 
 9410000    300.66037   -129749.77   -128506.18    157.42046    601857.16    84.430198    84.430198    84.430198    3.4764451   -128506.18   -128447.05 
 9420000    302.75873   -129748.89   -128496.62    192.91005    601857.16    84.430198    84.430198    84.430198    3.4764451   -128496.62   -128424.15 
 9430000     298.6736   -129743.04   -128507.67     123.6415    601857.16    84.430198    84.430198    84.430198    3.4764451   -128507.67   -128461.22 
 9440000    303.92779   -129744.57   -128487.46    190.50554    601857.16    84.430198    84.430198    84.430198    3.4764451   -128487.46    -128415.9 
 9450000    300.88051   -129750.32   -128505.82    83.388466    601857.16    84.430198    84.430198    84.430198    3.4764451   -128505.82    -128474.5 
 9460000    300.58717   -129738.68   -128495.39    193.22749    601857.16    84.430198    84.430198    84.430198    3.4764451   -128495.39    -128422.8 
 9470000    300.73715   -129749.84   -128505.94    37.594197    601857.16    84.430198    84.430198    84.430198    3.4764451   -128505.94   -128491.81 
 9480000    299.64929   -129746.38   -128506.97    128.13184    601857.16    84.430198    84.430198    84.430198    3.4764451   -128506.97   -128458.84 
 9490000    298.51033   -129752.55   -128517.85    63.631738    601857.16    84.430198    84.430198    84.430198    3.4764451   -128517.85   -128493.95 
colvars: Synchronizing (emptying the buffer of) trajectory file "out.colvars.traj".
colvars: Writing the state file "rest.colvars.state".
 9500000    299.59189   -129754.48    -128515.3    43.804928    601857.16    84.430198    84.430198    84.430198    3.4764451    -128515.3   -128498.85 
 9510000    299.78825    -129748.6   -128508.62    128.17755    601857.16    84.430198    84.430198    84.430198    3.4764451   -128508.62   -128460.47 
 9520000    300.01163   -129751.76   -128510.85    87.255683    601857.16    84.430198    84.430198    84.430198    3.4764451   -128510.85   -128478.07 
 9530000    301.33947   -129756.09    -128509.7    10.910704    601857.16    84.430198    84.430198    84.430198    3.4764451    -128509.7    -128505.6 
 9540000    299.34028   -129750.66   -128512.53    126.96361    601857.16    84.430198    84.430198    84.430198    3.4764451   -128512.53   -128464.83 
 9550000    300.61195   -129758.38   -128514.99    52.251147    601857.16    84.430198    84.430198    84.430198    3.4764451   -128514.99   -128495.36 
 9560000    300.76959    -129763.3   -128519.25    3.0448567    601857.16    84.430198    84.430198    84.430198    3.4764451   -128519.25   -128518.11 
 9570000    300.50138   -129757.52   -128514.59    10.912007    601857.16    84.430198    84.430198    84.430198    3.4764451   -128514.59   -128510.49 
 9580000    298.99692   -129745.84   -128509.13    77.180565    601857.16    84.430198    84.430198    84.430198    3.4764451   -128509.13   -128480.14 
 9590000     298.0908   -129752.29   -128519.33    67.587602    601857.16    84.430198    84.430198    84.430198    3.4764451   -128519.33   -128493.94 
colvars: Synchronizing (emptying the buffer of) trajectory file "out.colvars.traj".
colvars: Writing the state file "rest.colvars.state".
 9600000    301.79433   -129748.52   -128500.24    145.34165    601857.16    84.430198    84.430198    84.430198    3.4764451   -128500.24   -128445.65 
 9610000    301.49601   -129744.98   -128497.94    93.933014    601857.16    84.430198    84.430198    84.430198    3.4764451   -128497.94   -128462.65 
 9620000    301.62633   -129754.59   -128507.01    120.52093    601857.16    84.430198    84.430198    84.430198    3.4764451   -128507.01   -128461.74 
 9630000    301.39547   -129755.62   -128508.99     149.8387    601857.16    84.430198    84.430198    84.430198    3.4764451   -128508.99   -128452.71 
 9640000    301.24985   -129740.18   -128494.15    63.413085    601857.16    84.430198    84.430198    84.430198    3.4764451   -128494.15   -128470.33 
 9650000    301.04703   -129753.98   -128508.79    32.545715    601857.16    84.430198    84.430198    84.430198    3.4764451   -128508.79   -128496.56 
 9660000    302.76108   -129752.06   -128499.79    202.42044    601857.16    84.430198    84.430198    84.430198    3.4764451   -128499.79   -128423.75 
 9670000    300.85986    -129754.7   -128510.29    136.41097    601857.16    84.430198    84.430198    84.430198    3.4764451   -128510.29   -128459.05 
 9680000    298.63354   -129750.95   -128515.75    94.142113    601857.16    84.430198    84.430198    84.430198    3.4764451   -128515.75   -128480.38 
 9690000    299.99446   -129739.14    -128498.3    236.51822    601857.16    84.430198    84.430198    84.430198    3.4764451    -128498.3   -128409.45 
colvars: Synchronizing (emptying the buffer of) trajectory file "out.colvars.traj".
colvars: Writing the state file "rest.colvars.state".
 9700000    298.99157    -129764.3   -128527.61    24.094788    601857.16    84.430198    84.430198    84.430198    3.4764451   -128527.61   -128518.56 
 9710000    298.15482   -129744.73   -128511.51    226.46881    601857.16    84.430198    84.430198    84.430198    3.4764451   -128511.51   -128426.43 
 9720000    298.01091   -129746.82   -128514.19     100.5968    601857.16    84.430198    84.430198    84.430198    3.4764451   -128514.19    -128476.4 
 9730000     299.5452   -129744.96   -128505.98    17.083254    601857.16    84.430198    84.430198    84.430198    3.4764451   -128505.98   -128499.56 
 9740000    300.56001   -129743.86   -128500.68     61.95044    601857.16    84.430198    84.430198    84.430198    3.4764451   -128500.68   -128477.41 
 9750000    301.99114   -129759.99    -128510.9    91.442775    601857.16    84.430198    84.430198    84.430198    3.4764451    -128510.9   -128476.55 
 9760000    301.77944   -129747.95   -128499.73    139.33443    601857.16    84.430198    84.430198    84.430198    3.4764451   -128499.73   -128447.39 
 9770000    299.83037   -129735.99   -128495.84    79.877281    601857.16    84.430198    84.430198    84.430198    3.4764451   -128495.84   -128465.83 
 9780000    299.50458   -129756.19   -128517.38    6.6989628    601857.16    84.430198    84.430198    84.430198    3.4764451   -128517.38   -128514.87 
 9790000    301.64157    -129749.5   -128501.85    124.40064    601857.16    84.430198    84.430198    84.430198    3.4764451   -128501.85   -128455.12 
colvars: Synchronizing (emptying the buffer of) trajectory file "out.colvars.traj".
colvars: Writing the state file "rest.colvars.state".
 9800000     298.4132   -129746.24   -128511.94    115.20514    601857.16    84.430198    84.430198    84.430198    3.4764451   -128511.94   -128468.66 
 9810000    300.07569   -129748.07    -128506.9    178.25844    601857.16    84.430198    84.430198    84.430198    3.4764451    -128506.9   -128439.94 
 9820000    296.86251   -129756.43   -128528.54   -25.701832    601857.16    84.430198    84.430198    84.430198    3.4764451   -128528.54    -128538.2 
 9830000    298.73026   -129753.26   -128517.65    43.010683    601857.16    84.430198    84.430198    84.430198    3.4764451   -128517.65    -128501.5 
 9840000    302.67945   -129754.08   -128502.14   -16.249934    601857.16    84.430198    84.430198    84.430198    3.4764451   -128502.14   -128508.24 
 9850000    300.34308   -129752.59   -128510.32     25.49325    601857.16    84.430198    84.430198    84.430198    3.4764451   -128510.32   -128500.74 
 9860000    298.93771    -129753.3   -128516.83   -27.324432    601857.16    84.430198    84.430198    84.430198    3.4764451   -128516.83    -128527.1 
 9870000    299.73878   -129741.74   -128501.96     77.68236    601857.16    84.430198    84.430198    84.430198    3.4764451   -128501.96   -128472.78 
 9880000    297.40615   -129740.42   -128510.29       128.25    601857.16    84.430198    84.430198    84.430198    3.4764451   -128510.29   -128462.11 
 9890000    299.46448   -129751.38   -128512.74    76.109575    601857.16    84.430198    84.430198    84.430198    3.4764451   -128512.74   -128484.15 
colvars: Synchronizing (emptying the buffer of) trajectory file "out.colvars.traj".
colvars: Writing the state file "rest.colvars.state".
 9900000    302.60105    -129748.5   -128496.88    133.15858    601857.16    84.430198    84.430198    84.430198    3.4764451   -128496.88   -128446.86 
 9910000    302.66633   -129746.39   -128494.51    129.43208    601857.16    84.430198    84.430198    84.430198    3.4764451   -128494.51   -128445.89 
 9920000    302.86494   -129748.94   -128496.23    130.15264    601857.16    84.430198    84.430198    84.430198    3.4764451   -128496.23   -128447.34 
 9930000    298.36968   -129742.21   -128508.09    102.24869    601857.16    84.430198    84.430198    84.430198    3.4764451   -128508.09   -128469.68 
 9940000    297.72625   -129749.79   -128518.34    64.695661    601857.16    84.430198    84.430198    84.430198    3.4764451   -128518.34   -128494.04 
 9950000    300.84555   -129749.69   -128505.33    140.30107    601857.16    84.430198    84.430198    84.430198    3.4764451   -128505.33   -128452.63 
 9960000    298.29665   -129752.82      -128519   -1.3632459    601857.16    84.430198    84.430198    84.430198    3.4764451      -128519   -128519.51 
 9970000    299.56697   -129759.55   -128520.48    44.472977    601857.16    84.430198    84.430198    84.430198    3.4764451   -128520.48   -128503.78 
 9980000    300.21769   -129741.67   -128499.91    226.54731    601857.16    84.430198    84.430198    84.430198    3.4764451   -128499.91   -128414.81 
 9990000    300.41004   -129758.28   -128515.73    80.086272    601857.16    84.430198    84.430198    84.430198    3.4764451   -128515.73   -128485.64 
colvars: Synchronizing (emptying the buffer of) trajectory file "out.colvars.traj".
colvars: Writing the state file "rest.colvars.state".
10000000    299.24269   -129757.34   -128519.61    2.6337422    601857.16    84.430198    84.430198    84.430198    3.4764451   -128519.61   -128518.62 
Loop time of 32033.3 on 84 procs for 10000000 steps with 32000 atoms

Performance: 53.944 ns/day, 0.445 hours/ns, 312.175 timesteps/s
99.9% CPU use with 84 MPI tasks x 1 OpenMP threads

MPI task timing breakdown:
Section |  min time  |  avg time  |  max time  |%varavg| %total
---------------------------------------------------------------
Pair    | 21480      | 22266      | 22986      | 221.2 | 69.51
Neigh   | 208.68     | 219.35     | 235.5      |  42.1 |  0.68
Comm    | 1944.5     | 2569.7     | 3365.3     | 593.2 |  8.02
Output  | 2.118      | 2.1269     | 2.3904     |   2.0 |  0.01
Modify  | 6485.6     | 6631.6     | 6853.8     | 107.9 | 20.70
Other   |            | 344.3      |            |       |  1.07

Nlocal:    380.952 ave 392 max 368 min
Histogram: 4 2 4 8 16 16 13 12 7 2
Nghost:    2994.93 ave 3025 max 2965 min
Histogram: 3 4 5 9 21 15 11 13 2 1
Neighs:    42289.7 ave 44399 max 39713 min
Histogram: 2 3 8 10 8 14 15 10 12 2

Total # of neighbors = 3552334
Ave neighs/atom = 111.01
Neighbor list builds = 188191
Dangerous builds = 0
colvars: Saving collective variables state to "out.colvars.state".
colvars: Resetting the Collective Variables Module.

Please see the log.cite file for references relevant to this simulation

Total wall time: 8:58:31
